

     ************************************************************************
     *************** Dalton - An Electronic Structure Program ***************
     ************************************************************************

    This is output from DALTON release Dalton2022.0-dev (2022)
         ( Web site: http://daltonprogram.org )

   ----------------------------------------------------------------------------

    NOTE:
     
    Dalton is an experimental code for the evaluation of molecular
    properties using (MC)SCF, DFT, CI, and CC wave functions.
    The authors accept no responsibility for the performance of
    the code or for the correctness of the results.
     
    The code (in whole or part) is provided under a licence and
    is not to be reproduced for further distribution without
    the written permission of the authors or their representatives.
     
    See the home page "http://daltonprogram.org" for further information.
     
    If results obtained with this code are published,
    the appropriate citations would be both of:
     
       K. Aidas, C. Angeli, K. L. Bak, V. Bakken,
       R. Bast, L. Boman, O. Christiansen, R. Cimiraglia,
       S. Coriani, P. Dahle, E. K. Dalskov, U. Ekstroem,
       T. Enevoldsen, J. J. Eriksen, P. Ettenhuber, B. Fernandez,
       L. Ferrighi, H. Fliegl, L. Frediani, K. Hald, A. Halkier,
       C. Haettig, H. Heiberg, T. Helgaker, A. C. Hennum,
       H. Hettema, E. Hjertenaes, S. Hoest, I.-M. Hoeyvik,
       M. F. Iozzi, B. Jansik, H. J. Aa. Jensen, D. Jonsson,
       P. Joergensen, J. Kauczor, S. Kirpekar,
       T. Kjaergaard, W. Klopper, S. Knecht, R. Kobayashi, H. Koch,
       J. Kongsted, A. Krapp, K. Kristensen, A. Ligabue,
       O. B. Lutnaes, J. I. Melo, K. V. Mikkelsen, R. H. Myhre,
       C. Neiss, C. B. Nielsen, P. Norman, J. Olsen,
       J. M. H. Olsen, A. Osted, M. J. Packer, F. Pawlowski,
       T. B. Pedersen, P. F. Provasi, S. Reine, Z. Rinkevicius,
       T. A. Ruden, K. Ruud, V. Rybkin, P. Salek, C. C. M. Samson,
       A. Sanchez de Meras, T. Saue, S. P. A. Sauer,
       B. Schimmelpfennig, K. Sneskov, A. H. Steindal,
       K. O. Sylvester-Hvid, P. R. Taylor, A. M. Teale,
       E. I. Tellgren, D. P. Tew, A. J. Thorvaldsen, L. Thoegersen,
       O. Vahtras, M. A. Watson, D. J. D. Wilson, M. Ziolkowski
       and H. Agren,
       "The Dalton quantum chemistry program system",
       WIREs Comput. Mol. Sci. 2014, 4:269-284 (doi: 10.1002/wcms.1172)
     
    and
     
       Dalton, a molecular electronic structure program,
       Release Dalton2022.0-dev (2022), see http://daltonprogram.org
   ----------------------------------------------------------------------------

    Authors in alphabetical order (Major contribution(s) in parenthesis):

  Kestutis Aidas,              Vilnius University,        Lithuania   (QM/MM)
  Celestino Angeli,            University of Ferrara,     Italy       (NEVPT2)
  Juan J. Aucar,               Northeast National UniversiArgentina   (LRESC, Relativistic Effects on EFG)
  Keld L. Bak,                 UNI-C,                     Denmark     (AOSOPPA, non-adiabatic coupling, magnetic properties)
  Vebjoern Bakken,             University of Oslo,        Norway      (DALTON; geometry optimizer, symmetry detection)
  Radovan Bast,                UiT The Arctic U. of NorwayNorway      (DALTON installation and execution frameworks)
  Pablo Baudin,                University of Valencia,    Spain       (Cholesky excitation energies)
  Linus Boman,                 NTNU,                      Norway      (Cholesky decomposition and subsystems)
  Bruno N. Cabral Tenorio,     Technical Univ. of Denmark,Denmark     (Lanczos-based CC methods)
  Ove Christiansen,            Aarhus University,         Denmark     (CC module)
  Renzo Cimiraglia,            University of Ferrara,     Italy       (NEVPT2)
  Sonia Coriani,               Technical Univ. of Denmark,Denmark     (CC and RESPONS modules)
  Janusz Cukras,               University of Warsaw,      Poland      (MChD in RESPONS)
  Paal Dahle,                  University of Oslo,        Norway      (Parallelization)
  Erik K. Dalskov,             UNI-C,                     Denmark     (SOPPA)
  Thomas Enevoldsen,           Univ. of Southern Denmark, Denmark     (SOPPA)
  Janus J. Eriksen,            Aarhus University,         Denmark     (Polarizable embedding, TDA)
  Rasmus Faber,                Technical Univ. of Denmark,Denmark     (Vib.avg. NMR w. SOPPA, parallel AO-SOPPA, CVS-CC and EOMCC)
  Tobias Fahleson,             KTH Stockholm,             Sweden      (Damped cubic response)
  Berta Fernandez,             U. of Santiago de CompostelSpain       (Doublet spin, ESR in RESPONS)
  Lara Ferrighi,               Aarhus University,         Denmark     (PCM Cubic response)
  Heike Fliegl,                University of Oslo,        Norway      (CCSD(R12))
  Luca Frediani,               UiT The Arctic U. of NorwayNorway      (PCM)
  Emmanuel Fromager,           Univ. Strasbourg,          France      (MC-srDFT)
  Bin Gao,                     UiT The Arctic U. of NorwayNorway      (Gen1Int library)
  Andre S. P. Gomes,           CNRS/Universite de Lille,  France      (Frozen density embedding)
  Christof Haettig,            Ruhr-University Bochum,    Germany     (CC module)
  Kasper Hald,                 Aarhus University,         Denmark     (CC module)
  Asger Halkier,               Aarhus University,         Denmark     (CC module)
  Frederik Beyer Hansen,       University of Copenhagen,  Denmark     (Parallel AO-SOPPA)
  Erik D. Hedegaard,           Univ. of Southern Denmark, Denmark     (Polarizable embedding, QM/MM, and MC-srDFT)
  Hanne Heiberg,               University of Oslo,        Norway      (Geometry analysis, selected one-electron integrals)
  Trygve Helgaker,             University of Oslo,        Norway      (DALTON; ABACUS, ERI, DFT modules, London, and much more)
  Alf Christian Hennum,        University of Oslo,        Norway      (Parity violation)
  Hinne Hettema,               University of Auckland,    New Zealand (Quadratic response in RESPONS; SIRIUS supersymmetry)
  Andreas E. Hillers-Bendtsen, University of Copenhagen,  Denmark     (MP3)
  Eirik Hjertenaes,            NTNU,                      Norway      (Cholesky decomposition)
  Nicolai Machholdt Hoeyer,    Aarhus University,         Denmark     (MP3)
  Pi A. B. Haase,              University of Copenhagen,  Denmark     (Triplet AO-SOPPA)
  Maria Francesca Iozzi,       University of Oslo,        Norway      (RPA)
  Christoph Jacob,             TU Braunschweig            Germany     (Frozen density embedding)
  Brano Jansik,                Technical Univ. of Ostrava Czech Rep.  (DFT cubic response)
  Hans Joergen Aa. Jensen,     Univ. of Southern Denmark, Denmark     (DALTON; SIRIUS, RESPONS, ABACUS, MC-srDFT, and much more)
  Dan Jonsson,                 UiT The Arctic U. of NorwayNorway      (Cubic response in RESPONS module)
  Poul Joergensen,             Aarhus University,         Denmark     (RESPONS, ABACUS, and CC modules)
  Maciej Kaminski,             University of Warsaw,      Poland      (CPPh in RESPONS)
  Joanna Kauczor,              Linkoeping University,     Sweden      (Complex polarization propagator (CPP) module)
  Sheela Kirpekar,             Univ. of Southern Denmark, Denmark     (Mass-velocity & Darwin integrals)
  Frederik Oersted Kjeldal,    Technical Univ. of Denmark,Denmark     (MP3)
  Erik Kjellgren,              Univ. of Southern Denmark, Denmark     (MC-srDFT)
  Wim Klopper,                 KIT Karlsruhe,             Germany     (R12 code in CC, SIRIUS, and ABACUS modules)
  Stefan Knecht,               ETH Zurich,                Switzerland (Parallel CI and MCSCF, MC-srDFT)
  Rika Kobayashi,              Australian National Univ., Australia   (DIIS in CC, London in MCSCF)
  Henrik Koch,                 NTNU,                      Norway      (CC module, Cholesky decomposition)
  Jacob Kongsted,              Univ. of Southern Denmark, Denmark     (Polarizable embedding, polarizable density embedding, QM/MM)
  Andrea Ligabue,              University of Modena,      Italy       (CTOCD, AOSOPPA)
  Nanna H. List,               Univ. of Southern Denmark, Denmark     (Polarizable embedding)
  Ola B. Lutnaes,              University of Oslo,        Norway      (DFT Hessian)
  Juan I. Melo,                University of Buenos Aires,Argentina   (LRESC, Relativistic Effects on NMR Shieldings)
  Kurt V. Mikkelsen,           University of Copenhagen,  Denmark     (MC-SCRF, QM/MM, and MP3)
  Rolf H. Myhre,               NTNU,                      Norway      (Subsystems and CC3)
  Christian Neiss,             Univ. Erlangen-Nuernberg,  Germany     (CCSD(R12))
  Christian B. Nielsen,        University of Copenhagen,  Denmark     (QM/MM)
  Patrick Norman,              KTH Stockholm,             Sweden      (Cubic response and complex frequency response in RESPONS)
  Jeppe Olsen,                 Aarhus University,         Denmark     (SIRIUS CI/density modules)
  Jogvan Magnus H. Olsen,      Aarhus University,         Denmark     (Polarizable embedding and polarizable density embedding)
  Anders Osted,                Copenhagen University,     Denmark     (QM/MM)
  Martin J. Packer,            University of Sheffield,   UK          (SOPPA)
  Filip Pawlowski,             Kazimierz Wielki UniversityPoland      (CC3)
  Morten N. Pedersen,          Univ. of Southern Denmark, Denmark     (Polarizable embedding)
  Thomas B. Pedersen,          University of Oslo,        Norway      (Cholesky decomposition)
  Patricio F. Provasi,         University of Northeastern,Argentina   (Analysis of coupling constants in localized orbitals)
  Peter Reinholdt,             Univ. of Southern Denmark, Denmark     (Polarizable embedding and polarizable density embedding)
  Zilvinas Rinkevicius,        KTH Stockholm,             Sweden      (open-shell DFT, ESR)
  Elias Rudberg,               KTH Stockholm,             Sweden      (DFT grid and basis info)
  Torgeir A. Ruden,            University of Oslo,        Norway      (Numerical derivatives in ABACUS)
  Kenneth Ruud,                UiT The Arctic U. of NorwayNorway      (DALTON; ABACUS magnetic properties and much more)
  Pawel Salek,                 KTH Stockholm,             Sweden      (DALTON; DFT code)
  Claire C. M. Samson,         University of Karlsruhe    Germany     (Boys localization, r12 integrals in ERI)
  Alfredo Sanchez de Meras,    University of Valencia,    Spain       (CC module, Cholesky decomposition)
  Trond Saue,                  Paul Sabatier University,  France      (direct Fock matrix construction)
  Stephan P. A. Sauer,         University of Copenhagen,  Denmark     (SOPPA(CCSD), SOPPA prop., AOSOPPA, vibrational g-factors)
  Bernd Schimmelpfennig,       Forschungszentrum KarlsruheGermany     (AMFI module)
  Anna K. Schnack-Petersen,    University of Copenhagen,  Denmark     (RPA(D) and HRPA(D) properties in AOSOPPA)
  Kristian Sneskov,            Aarhus University,         Denmark     (Polarizable embedding, QM/MM)
  Arnfinn H. Steindal,         UiT The Arctic U. of NorwayNorway      (parallel QM/MM, polarizable embedding)
  Casper Steinmann,            Aalborg University,        Denmark     (QFIT, polarizable embedding)
  K. O. Sylvester-Hvid,        University of Copenhagen,  Denmark     (MC-SCRF)
  Peter R. Taylor,             VLSCI/Univ. of Melbourne,  Australia   (Symmetry handling ABACUS, integral transformation)
  Andrew M. Teale,             University of Nottingham,  England     (DFT-AC, DFT-D)
  David P. Tew,                University of Bristol,     England     (CCSD(R12))
  Julien Toulouse,             Sorbonne Univ.,            France      (MC-srDFT)
  Olav Vahtras,                KTH Stockholm,             Sweden      (Triplet response, spin-orbit, ESR, TDDFT, open-shell DFT)
  Lucas Visscher,              Vrije Universiteit AmsterdaNetherlands (Frozen density embedding)
  David J. Wilson,             La Trobe University,       Australia   (DFT Hessian and DFT magnetizabilities)
  Luna Zamok,                  University of Copenhagen,  Denmark     (Block Lanczos RPA solver in SOPPA module)
  Hans Agren,                  KTH Stockholm,             Sweden      (SIRIUS module, RESPONS, MC-SCRF solvation)
 --------------------------------------------------------------------------------

     Date and time (Linux)  : Sat Apr 13 14:16:10 2024
     Host name              : node100                                 

 * Work memory size             :    64000000 =  488.28 megabytes.

 * Directories for basis set searches:
   1) /home1/s4925076/dalton-files/Sample_inputs_dalton2024_updated/ex2good/31Gstarstar
   2) /home3/hb-qchav/Dalton/basis


Compilation information
-----------------------

 Who compiled             | p256146
 Host                     | login1
 System                   | Linux-4.18.0-425.13.1.el8_7.x86_64
 CMake generator          | Unix Makefiles
 Processor                | x86_64
 64-bit integers          | OFF
 MPI                      | ON
 Fortran compiler         | /cvmfs/hpc.rug.nl/versions/2023.01/rocky8/x86_64/a
                          | md/zen3/software/impi/2021.7.1-intel-compilers-202
                          | 2.2.1/mpi/2021.7.1/bin/mpiifort
 Fortran compiler version | unknown
 C compiler               | /cvmfs/hpc.rug.nl/versions/2023.01/rocky8/x86_64/a
                          | md/zen3/software/impi/2021.7.1-intel-compilers-202
                          | 2.2.1/mpi/2021.7.1/bin/mpiicc
 C compiler version       | unknown
 C++ compiler             | /cvmfs/hpc.rug.nl/versions/2023.01/rocky8/x86_64/a
                          | md/zen3/software/impi/2021.7.1-intel-compilers-202
                          | 2.2.1/mpi/2021.7.1/bin/mpiicpc
 C++ compiler version     | unknown
 BLAS                     | /cvmfs/hpc.rug.nl/versions/2023.01/rocky8/x86_64/a
                          | md/zen3/software/imkl/2022.2.1/mkl/2022.2.1/lib/in
                          | tel64/libmkl_intel_lp64.so;/cvmfs/hpc.rug.nl/versi
                          | ons/2023.01/rocky8/x86_64/amd/zen3/software/imkl/2
                          | 022.2.1/mkl/2022.2.1/lib/intel64/libmkl_sequential
                          | .so;/cvmfs/hpc.rug.nl/versions/2023.01/rocky8/x86_
                          | 64/amd/zen3/software/imkl/2022.2.1/mkl/2022.2.1/li
                          | b/intel64/libmkl_core.so;/usr/lib64/libpthread.so;
                          | /usr/lib64/libm.so
 LAPACK                   | /cvmfs/hpc.rug.nl/versions/2023.01/rocky8/x86_64/a
                          | md/zen3/software/imkl/2022.2.1/mkl/2022.2.1/lib/in
                          | tel64/libmkl_lapack95_lp64.a;/cvmfs/hpc.rug.nl/ver
                          | sions/2023.01/rocky8/x86_64/amd/zen3/software/imkl
                          | /2022.2.1/mkl/2022.2.1/lib/intel64/libmkl_intel_lp
                          | 64.so
 Static linking           | OFF
 Last Git revision        | 4d6ac05be54d7f9c5fe49e0ac32a42491a6c6955
 Git branch               | master
 Configuration time       | 2023-04-05 13:35:07.780405

 * Sequential calculation.


   Content of the .dal input file
 ----------------------------------

**DALTON INPUT
.RUN WAVEFUNCTION
.OPTIMIZE
**WAVE FUNCTION
.HF
**END OF DALTON INPUT


   Content of the .mol file
 ----------------------------

BASIS
6-31G**
opt

Atomtypes=2 Nosymmetry Angstrom Charge=1
Charge=6.0 Atoms=3
C1         -8.95379        0.32003       -0.00444
C2         -7.79466       -0.27153       -0.00368
C3         -6.47763        0.43023       -0.00052
Charge=1.0 Atoms=5
H         -5.86961        0.08753       -0.84329
H         -5.93771        0.20865        0.92507
H         -6.59355        1.51583       -0.08081
H         -9.90306        0.80590       -0.00415
H         -7.76891       -1.35768        0.01183


       *******************************************************************
       *********** Output from DALTON general input processing ***********
       *******************************************************************

 --------------------------------------------------------------------------------
   Overall default print level:    0
   Print level for DALTON.STAT:    1

    HERMIT 1- and 2-electron integral sections will be executed
    "Old" integral transformation used (limited to max 255 basis functions)
    Wave function sections will be executed (SIRIUS module)
 --------------------------------------------------------------------------------


 Chosen parameters for *OPTIMI :
 -------------------------------

 Default 1st order method will be used:   BFGS update.
 Optimization will be performed in redundant internal coordinates (by default).
 Model Hessian will be used as initial Hessian.
 The model Hessian parameters of Roland Lindh will be used.
 
 
 Trust region method will be used to control step (default).
 
 Convergence threshold for gradient set to :      1.00D-04
 Convergence threshold for energy set to   :      1.00D-06
 Convergence threshold for step set to     :      1.00D-04
 Number of convergence criteria set to     :   2


              >>>>>>>>>>>>>>>>>>>>>>>>>>>>>>>>>>>>>>>>>>>>>>>>>>>>>
              >>>>>>>>>> 1st Order Geometry Optimization >>>>>>>>>>
              >>>>>>>>>>>>>>>>>>>>>>>>>>>>>>>>>>>>>>>>>>>>>>>>>>>>>


 Reading .mol file to determine number of atoms for parallel runs.


   ****************************************************************************
   *************** Output of molecule and basis set information ***************
   ****************************************************************************


    The two title cards from your ".mol" input:
    --------------------------------------------------------------------------------
 1: opt
 2: 
    --------------------------------------------------------------------------------

  Coordinates are entered in Angstrom and converted to atomic units.
          - Conversion factor : 1 bohr = 0.52917721 A

  Atomic type no.    1
  --------------------
  Nuclear charge:   6.00000
  Number of symmetry independent centers:    3
  Number of basis sets to read;    2
  Basis set file used for this atomic type with Z =   6 :
     "/home3/hb-qchav/Dalton/basis/6-31G**"

  Info about the basis set file: your basis has no documentation.
  Basis set: 6-31G**                                                                         

  Atomic type no.    2
  --------------------
  Nuclear charge:   1.00000
  Number of symmetry independent centers:    5
  Number of basis sets to read;    2
  Basis set file used for this atomic type with Z =   1 :
     "/home3/hb-qchav/Dalton/basis/6-31G**"

  Info about the basis set file: your basis has no documentation.
  Basis set: 6-31G**                                                                         


                         SYMGRP: Point group information
                         -------------------------------

@    Point group: C1 


                                 Isotopic Masses
                                 ---------------

                           C1         12.000000
                           C2         12.000000
                           C3         12.000000
                           H           1.007825
                           H           1.007825
                           H           1.007825
                           H           1.007825
                           H           1.007825

                       Total mass:    41.039125 amu
                       Natural abundance:  96.664 %

 Center-of-mass coordinates (a.u.):  -14.507921    0.323012   -0.004373
 Center-of-mass coordinates (Angs):   -7.677261    0.170931   -0.002314


  Atoms and basis sets
  --------------------

  Number of atom types :    2
  Total number of atoms:    8

  Basis set used is "6-31G**" from the basis set library.

  label    atoms   charge   prim   cont     basis
  ----------------------------------------------------------------------
  C3          3    6.0000    27    14      [10s4p1d|3s2p1d]                                   
  H           5    1.0000     7     5      [4s1p|2s1p]                                        
  ----------------------------------------------------------------------
  total:      8   23.0000   116    67
  ----------------------------------------------------------------------
  Spherical harmonic basis used.

  Threshold for neglecting AO integrals:  1.00D-12


  Cartesian Coordinates (a.u.)
  ----------------------------

  Total number of coordinates:   24
  C1      :     1  x -16.9202108807    2  y   0.6047690518    3  z  -0.0083903840
  C2      :     4  x -14.7297726374    5  y  -0.5131173347    6  z  -0.0069541921
  C3      :     7  x -12.2409466390    8  y   0.8130168708    9  z  -0.0009826576
  H       :    10  x -11.0919553605   11  y   0.1654077277   12  z  -1.5935871439
  H       :    13  x -11.2206457096   14  y   0.3942913560   15  z   1.7481289464
  H       :    16  x -12.4600036915   17  y   2.8645035520   18  z  -0.1527087682
  H       :    19  x -18.7140711994   20  y   1.5229302841   21  z  -0.0078423634
  H       :    22  x -14.6811121897   23  y  -2.5656433654   24  z   0.0223554601


   Interatomic separations (in Angstrom):
   --------------------------------------

            C1          C2          C3          H           H           H     
            ------      ------      ------      ------      ------      ------
 C1    :    0.000000
 C2    :    1.301356    0.000000
 C3    :    2.478614    1.492329    0.000000
 H     :    3.204667    2.130654    1.094254    0.000000
 H     :    3.158027    2.131059    1.094225    1.773811    0.000000
 H     :    2.646980    2.154825    1.094720    1.773557    1.775004    0.000000
 H     :    1.066388    2.367743    3.445970    4.181977    4.116328    3.385666
 H     :    2.054000    1.086566    2.205488    2.535193    2.576954    3.105980

            H           H     
            ------      ------
 H     :    0.000000
 H     :    3.039067    0.000000


  Max    interatomic separation is    4.1820 Angstrom (    7.9028 Bohr)
  between atoms    7 and    4, "H     " and "H     ".

  Min HX interatomic separation is    1.0664 Angstrom (    2.0152 Bohr)

  Min YX interatomic separation is    1.3014 Angstrom (    2.4592 Bohr)


  Bond distances (Angstrom):
  --------------------------

                  atom 1     atom 2       distance
                  ------     ------       --------
  bond distance:  C2         C1           1.301356
  bond distance:  C3         C2           1.492329
  bond distance:  H          C3           1.094254
  bond distance:  H          C3           1.094225
  bond distance:  H          C3           1.094720
  bond distance:  H          C1           1.066388
  bond distance:  H          C2           1.086566


  Bond angles (degrees):
  ----------------------

                  atom 1     atom 2     atom 3         angle
                  ------     ------     ------         -----
  bond angle:     C2         C1         H            179.917
  bond angle:     C1         C2         C3           124.912
  bond angle:     C1         C2         H            118.393
  bond angle:     C3         C2         H            116.687
  bond angle:     C2         C3         H            109.967
  bond angle:     C2         C3         H            110.001
  bond angle:     C2         C3         H            111.884
  bond angle:     H          C3         H            108.294
  bond angle:     H          C3         H            108.235
  bond angle:     H          C3         H            108.367




 Principal moments of inertia (u*A**2) and principal axes
 --------------------------------------------------------

   IA       9.488092          0.998640    0.052122    0.001464
   IB      51.216391         -0.052118    0.998637   -0.002862
   IC      57.532641         -0.001611    0.002782    0.999995


 Rotational constants
 --------------------

               A                   B                   C

          53264.5544           9867.5248           8784.2136 MHz
            1.776714            0.329145            0.293010 cm-1


@  Nuclear repulsion energy :   64.655169304646 Hartree


                     .---------------------------------------.
                     | Starting in Integral Section (HERMIT) |
                     `---------------------------------------'



 ***************************************************************************************
 ****************** Output from **INTEGRALS input processing (HERMIT) ******************
 ***************************************************************************************


 - Using defaults, no **INTEGRALS input found

 Default print level:        1

 Calculation of one- and two-electron Hamiltonian integrals.

 Center of mass  (bohr):    -14.507920502186      0.323012436646     -0.004372723960
 Operator center (bohr):      0.000000000000      0.000000000000      0.000000000000
 Gauge origin    (bohr):      0.000000000000      0.000000000000      0.000000000000
 Dipole origin   (bohr):      0.000000000000      0.000000000000      0.000000000000

Calculation of 2-electron integrals are postponed until they are needed.


     ************************************************************************
     ************************** Output from HERINT **************************
     ************************************************************************



                      Nuclear contribution to dipole moments
                      --------------------------------------

                 au               Debye          C m (/(10**-30)

      x   -331.51336909      -842.62288185     -2810.68739178
      y      7.80950108        19.84977054        66.21170750
      z     -0.08161727        -0.20745040        -0.69198004


  Total CPU  time used in HERMIT:   0.02 seconds
  Total wall time used in HERMIT:   0.02 seconds


                        .----------------------------------.
                        | End of Integral Section (HERMIT) |
                        `----------------------------------'



                   .--------------------------------------------.
                   | Starting in Wave Function Section (SIRIUS) |
                   `--------------------------------------------'


 *** Output from Huckel module :

     Using EWMO model:          T
     Using EHT  model:          F
     Number of Huckel orbitals each symmetry:   20

 EWMO - Energy Weighted Maximum Overlap - is a Huckel type method,
        which normally is better than Extended Huckel Theory.
 Reference: Linderberg and Ohrn, Propagators in Quantum Chemistry (Wiley, 1973)

 Huckel EWMO eigenvalues for symmetry :  1
          -11.357162     -11.350287     -11.344875      -1.646376      -1.217159
           -0.971487      -0.753397      -0.745015      -0.568218      -0.502543
           -0.484597      -0.333271      -0.239401      -0.141336      -0.130224
           -0.122375      -0.117830      -0.116186      -0.103862      -0.067998

 **********************************************************************
 *SIRIUS* a direct, restricted step, second order MCSCF program       *
 **********************************************************************

 
     Date and time (Linux)  : Sat Apr 13 14:16:10 2024
     Host name              : node100                                 

 Title lines from ".mol" input file:
     opt
     

 Print level on unit LUPRI =   2 is   0
 Print level on unit LUW4  =   2 is   5

@    Restricted, closed shell Hartree-Fock calculation.

@    Time-dependent Hartree-Fock calculation (random phase approximation).

 Initial molecular orbitals are obtained according to
 ".MOSTART EWMO  " input option

     Wave function specification
     ============================
@    Wave function type        --- HF ---
@    Number of closed shell electrons          22
@    Number of electrons in active shells       0
@    Total charge of the molecule               1

@    Spin multiplicity and 2 M_S                1         0
@    Total number of symmetries                 1 (point group: C1 )
@    Reference state symmetry                   1 (irrep name : A  )

     Orbital specifications
     ======================
@    Abelian symmetry species          All |    1
@                                          |  A  
                                       --- |  ---
@    Occupied SCF orbitals              11 |   11
@    Secondary orbitals                 56 |   56
@    Total number of orbitals           67 |   67
@    Number of basis functions          67 |   67

     Optimization information
     ========================
@    Number of configurations                 1
@    Number of orbital rotations            616
     ------------------------------------------
@    Total number of variables              617

     Maximum number of Fock   iterations      0
     Maximum number of DIIS   iterations     60
     Maximum number of QC-SCF iterations     60
     Threshold for SCF convergence     1.00D-05


 ***********************************************
 ***** DIIS acceleration of SCF iterations *****
 ***********************************************

 C1-DIIS algorithm; max error vectors =    8

 Iter      Total energy        Error norm    Delta(E)  DIIS dim.
 -----------------------------------------------------------------------------

Calculating AOSUPINT

---> (Re)generating AOTWOINT


     ************************************************************************
     ************************** Output from HERINT **************************
     ************************************************************************


 Threshold for neglecting two-electron integrals:  1.00D-12
 HERMIT - Number of two-electron integrals written:     2450318 ( 94.4% )
 HERMIT - Megabytes written:                             28.058

  Total CPU  time used in TWOINT:   0.27 seconds
  Total wall time used in TWOINT:   0.28 seconds
  Time used in TWOINT     is       0.27 seconds
  CPU  time used in MAKE_AOTWOINT is   0.27 seconds
  WALL time used in MAKE_AOTWOINT is   0.28 seconds
     (Precalculated AO two-electron integrals are transformed to P-supermatrix elements.
      Threshold for discarding integrals :  1.00D-12 )

@  1    -115.430292275        2.99773D+00   -1.15D+02    1
      Virial theorem: -V/T =      2.031388
@    MULPOP   C1      0.47; C2      0.57; C3      0.57; H      -0.12; H      -0.12; H      -0.14; H      -0.15; H      -0.09; 
   1  Level shift: doubly occupied orbital energies shifted by -2.00D-01
 -----------------------------------------------------------------------------
@  2    -116.080647377        9.10155D-01   -6.50D-01    2
      Virial theorem: -V/T =      1.997290
@    MULPOP   C1      0.53; C2     -0.31; C3     -0.41; H       0.23; H       0.23; H       0.21; H       0.22; H       0.30; 
   2  Level shift: doubly occupied orbital energies shifted by -1.00D-01
 -----------------------------------------------------------------------------
@  3    -116.135826326        2.65008D-01   -5.52D-02    3
      Virial theorem: -V/T =      2.002379
@    MULPOP   C1      0.19; C2     -0.09; C3     -0.34; H       0.22; H       0.22; H       0.19; H       0.32; H       0.30; 
   3  Level shift: doubly occupied orbital energies shifted by -5.00D-02
 -----------------------------------------------------------------------------
@  4    -116.144107147        1.06598D-01   -8.28D-03    4
      Virial theorem: -V/T =      2.001948
@    MULPOP   C1      0.25; C2     -0.18; C3     -0.40; H       0.23; H       0.23; H       0.20; H       0.35; H       0.31; 
   4  Level shift: doubly occupied orbital energies shifted by -2.50D-02
 -----------------------------------------------------------------------------
@  5    -116.146186194        4.51023D-02   -2.08D-03    5
      Virial theorem: -V/T =      2.001451
@    MULPOP   C1      0.20; C2     -0.14; C3     -0.40; H       0.23; H       0.23; H       0.20; H       0.37; H       0.32; 
   5  Level shift: doubly occupied orbital energies shifted by -1.25D-02
 -----------------------------------------------------------------------------
@  6    -116.146810889        1.42729D-02   -6.25D-04    6
      Virial theorem: -V/T =      2.001282
@    MULPOP   C1      0.19; C2     -0.13; C3     -0.40; H       0.23; H       0.23; H       0.20; H       0.37; H       0.31; 
 -----------------------------------------------------------------------------
@  7    -116.146874459        5.01922D-03   -6.36D-05    7
      Virial theorem: -V/T =      2.001258
@    MULPOP   C1      0.19; C2     -0.13; C3     -0.40; H       0.23; H       0.23; H       0.20; H       0.37; H       0.31; 
 -----------------------------------------------------------------------------
@  8    -116.146879186        1.18002D-03   -4.73D-06    8
      Virial theorem: -V/T =      2.001259
@    MULPOP   C1      0.19; C2     -0.13; C3     -0.40; H       0.23; H       0.23; H       0.20; H       0.37; H       0.31; 
 -----------------------------------------------------------------------------
@  9    -116.146879385        2.68673D-04   -1.99D-07    8
      Virial theorem: -V/T =      2.001258
@    MULPOP   C1      0.19; C2     -0.13; C3     -0.40; H       0.23; H       0.23; H       0.20; H       0.37; H       0.31; 
 -----------------------------------------------------------------------------
@ 10    -116.146879396        7.64913D-05   -1.08D-08    8
      Virial theorem: -V/T =      2.001258
@    MULPOP   C1      0.19; C2     -0.13; C3     -0.40; H       0.23; H       0.23; H       0.20; H       0.37; H       0.31; 
 -----------------------------------------------------------------------------
@ 11    -116.146879398        3.63700D-05   -1.81D-09    8
      Virial theorem: -V/T =      2.001258
@    MULPOP   C1      0.19; C2     -0.13; C3     -0.40; H       0.23; H       0.23; H       0.20; H       0.37; H       0.31; 
 -----------------------------------------------------------------------------
@ 12    -116.146879398        2.41905D-05   -8.32D-10    8
      Virial theorem: -V/T =      2.001258
@    MULPOP   C1      0.19; C2     -0.13; C3     -0.40; H       0.23; H       0.23; H       0.20; H       0.37; H       0.31; 
 -----------------------------------------------------------------------------
@ 13    -116.146879399        1.02324D-05   -5.93D-10    8
      Virial theorem: -V/T =      2.001258
@    MULPOP   C1      0.19; C2     -0.13; C3     -0.40; H       0.23; H       0.23; H       0.20; H       0.37; H       0.31; 
 -----------------------------------------------------------------------------
@ 14    -116.146879399        3.97362D-06   -7.97D-11    8

@ *** DIIS converged in  14 iterations !
@     Converged SCF energy, gradient:   -116.146879399071    3.97D-06
    - total time used in SIRFCK :              0.00 seconds


 *** SCF orbital energy analysis ***

 Only the 20 lowest virtual orbital energies printed in each symmetry.

 Number of electrons        :   22
 Closed shell orbitals      :   11

 Sym       Hartree-Fock orbital energies

1 A     -11.61294194   -11.54415174   -11.45641121    -1.35859457    -1.18118161
         -1.04385594    -0.93065004    -0.81753555    -0.79918798    -0.75277858
         -0.67130124    -0.20706009    -0.09115424     0.02399977     0.06811925
          0.08675249     0.12559376     0.13030242     0.19882701     0.32603250
          0.40222998     0.46888307     0.54717224     0.56375610     0.60348888
          0.61687930     0.63141878     0.71744843     0.74230408     0.77731584
          0.87215327

    E(LUMO) :    -0.20706009 au (symmetry 1)
  - E(HOMO) :    -0.67130124 au (symmetry 1)
  ------------------------------------------
    gap     :     0.46424115 au

 --- Writing SIRIFC interface file

--------------------------------------------------------------------------------


     .--------------------------------------------------.
     | HF-SCF KT IPs [a.u. & eV] from Koopmans' theorem |
     `--------------------------------------------------'


     HF-SCF KT symmetry 1 ( A  ) in point group C1  -- 11 principal poles with pole strength 1

   ============  ============  ============  ============  ============
      11.612942     11.544152     11.456411      1.358595      1.181182
     316.004225    314.132348    311.744807     36.969239     32.141587
   ============  ============  ============  ============  ============

   ============  ============  ============  ============  ============
       1.043856      0.930650      0.817536      0.799188      0.752779
      28.404765     25.324276     22.246274     21.747011     20.484147
   ============  ============  ============  ============  ============

   ============
       0.671301
      18.267036
   ============

@ Summary of HF-SCF KT ionization potentials [eV]:

@ Symmetry 1 (A  ) :   316.004     314.132     311.745      36.969      32.142
@                       28.405      25.324      22.246      21.747      20.484
@                       18.267

  === End of HF-SCF KT output ===
--------------------------------------------------------------------------------


 CPU and wall time for SCF :       0.470       0.909


                       .-----------------------------------.
                       | --- Final results from SIRIUS --- |
                       `-----------------------------------'


@    Spin multiplicity:           1
@    Spatial symmetry:            1 ( irrep  A   in C1  )
@    Total charge of molecule:    1

@    Final HF energy:            -116.146879399071                 
@    Nuclear repulsion:            64.655169304646
@    Electronic energy:          -180.802048703717

@    Final gradient norm:           0.000003973617

 
     Date and time (Linux)  : Sat Apr 13 14:16:11 2024
     Host name              : node100                                 

File label for MO orbitals:  13Apr24   FOCKDIIS

 (Only coefficients > 0.0100 are printed.)

 Molecular orbitals for symmetry species 1  (A  )
 ------------------------------------------------

    Orbital         2        3        4        5        6        7        8
   1 C1  :1s     0.0150   0.0000   0.1350  -0.1171  -0.0942  -0.0199   0.0206
   2 C1  :1s     0.0015  -0.0005  -0.2818   0.2497   0.2109   0.0414  -0.0466
   3 C1  :1s    -0.0068   0.0025  -0.1575   0.1807   0.1771   0.0250  -0.0365
   4 C1  :2px    0.0006  -0.0002  -0.1301   0.0085  -0.2855   0.2970  -0.0486
   5 C1  :2py   -0.0004  -0.0000   0.0617  -0.0253   0.1723  -0.0890   0.1462
   7 C1  :2px   -0.0036   0.0021   0.0049  -0.0265  -0.1331   0.1071  -0.0183
   8 C1  :2py    0.0015  -0.0012  -0.0034   0.0088   0.0726  -0.0417   0.0454
  10 C1  :3d2-  -0.0003  -0.0001   0.0151  -0.0142  -0.0071   0.0046   0.0091
  14 C1  :3d2+   0.0002  -0.0000  -0.0122   0.0056   0.0097   0.0069   0.0113
  15 C2  :1s    -0.9960  -0.0038   0.1675   0.0030   0.0918   0.0361  -0.0426
  16 C2  :1s    -0.0251  -0.0003  -0.3272  -0.0124  -0.1896  -0.0777   0.0947
  17 C2  :1s     0.0169   0.0015  -0.2385   0.0264  -0.1194  -0.1666   0.1608
  18 C2  :2px    0.0008  -0.0001   0.0700  -0.2299   0.0499  -0.2032   0.3278
  19 C2  :2py   -0.0003  -0.0002  -0.0644  -0.0048   0.0973   0.3413   0.2359
  21 C2  :2px   -0.0018   0.0036   0.0137  -0.0486  -0.0144  -0.0328   0.1681
  22 C2  :2py    0.0024   0.0005  -0.0092   0.0007   0.0661   0.1494   0.1582
  24 C2  :3d2-   0.0003  -0.0004   0.0038  -0.0156   0.0036  -0.0114   0.0112
  26 C2  :3d0    0.0009   0.0003   0.0165   0.0030   0.0083   0.0042  -0.0032
  28 C2  :3d2+  -0.0001  -0.0003  -0.0073   0.0003   0.0034   0.0134  -0.0007
  29 C3  :1s    -0.0037   0.9962   0.0784   0.1637  -0.0630  -0.0186   0.0239
  30 C3  :1s     0.0002   0.0261  -0.1466  -0.3088   0.1211   0.0356  -0.0368
  31 C3  :1s    -0.0026  -0.0176  -0.1148  -0.3095   0.1334   0.0354  -0.1595
  32 C3  :2px   -0.0002  -0.0007   0.0625   0.0027   0.0612  -0.0028  -0.3609
  33 C3  :2py   -0.0000  -0.0003   0.0253   0.0183   0.0531   0.1548  -0.1015
  35 C3  :2px    0.0020   0.0012   0.0074   0.0102   0.0189  -0.0032  -0.1130
  36 C3  :2py   -0.0003   0.0011   0.0036   0.0092   0.0053   0.0601  -0.0189
  38 C3  :3d2-   0.0003  -0.0001  -0.0063  -0.0023  -0.0071  -0.0097   0.0199
  40 C3  :3d0   -0.0003   0.0001   0.0057   0.0004   0.0040  -0.0027  -0.0182
  42 C3  :3d2+   0.0001  -0.0001  -0.0059   0.0001  -0.0047  -0.0004   0.0140
  43 H   :1s     0.0001  -0.0000  -0.0366  -0.1127   0.0565  -0.0097  -0.1232
  44 H   :1s    -0.0006   0.0028   0.0000  -0.0257   0.0197  -0.0048  -0.0778
  48 H   :1s     0.0002  -0.0000  -0.0371  -0.1121   0.0574  -0.0019  -0.1191
  49 H   :1s    -0.0007   0.0028   0.0006  -0.0249   0.0201  -0.0012  -0.0761
  53 H   :1s     0.0002  -0.0001  -0.0400  -0.1036   0.0728   0.0986  -0.0600
  54 H   :1s     0.0005   0.0025  -0.0029  -0.0261   0.0328   0.0506  -0.0357
  56 H   :2py   -0.0000   0.0004   0.0047   0.0107  -0.0057  -0.0060   0.0027
  58 H   :1s    -0.0001   0.0001  -0.0513   0.0951   0.2506  -0.1387   0.0396
  59 H   :1s    -0.0008   0.0009   0.0047   0.0127   0.0721  -0.0602   0.0251
  60 H   :2px   -0.0000  -0.0000  -0.0041   0.0066   0.0163  -0.0075   0.0031
  63 H   :1s     0.0005  -0.0002  -0.0841  -0.0052  -0.1261  -0.2277  -0.0888
  64 H   :1s    -0.0017   0.0002  -0.0092  -0.0033  -0.0385  -0.0988  -0.0365
  66 H   :2py    0.0005  -0.0000  -0.0098  -0.0003  -0.0106  -0.0136  -0.0051

    Orbital         9       10       11       12       13       14       15
   1 C1  :1s    -0.0000  -0.0229   0.0003   0.0005  -0.0008   0.1041  -0.0286
   2 C1  :1s     0.0011   0.0590  -0.0001   0.0027   0.0017  -0.1320   0.1100
   3 C1  :1s    -0.0068   0.0434  -0.0067  -0.0575  -0.0013  -1.2578   0.3735
   4 C1  :2px    0.0012   0.0965  -0.0029  -0.2251  -0.0011   0.1709  -0.0514
   5 C1  :2py    0.0014  -0.0150  -0.0034  -0.4358  -0.0046  -0.0684   0.0477
   6 C1  :2pz    0.1663  -0.0017  -0.4624   0.0051  -0.3565  -0.0029   0.0031
   7 C1  :2px   -0.0061   0.0194  -0.0066  -0.3196  -0.0096   0.9442  -0.2018
   8 C1  :2py    0.0032  -0.0117  -0.0005  -0.5309  -0.0032  -0.4014   0.4972
   9 C1  :2pz    0.0873  -0.0001  -0.3049   0.0057  -0.6110  -0.0082  -0.0078
  10 C1  :3d2-   0.0001   0.0016  -0.0001   0.0007   0.0005  -0.0285  -0.0100
  11 C1  :3d1-  -0.0054   0.0001   0.0115   0.0000  -0.0160  -0.0001  -0.0001
  12 C1  :3d0    0.0001   0.0017   0.0001   0.0006   0.0001  -0.0144   0.0066
  13 C1  :3d1+   0.0119  -0.0001  -0.0215  -0.0000   0.0295   0.0004  -0.0001
  14 C1  :3d2+   0.0001   0.0048  -0.0002   0.0001  -0.0000   0.0179  -0.0104
  15 C2  :1s     0.0002   0.0054  -0.0006  -0.0033   0.0013  -0.0692  -0.0696
  16 C2  :1s    -0.0016  -0.0129   0.0006   0.0059  -0.0022   0.1877   0.1102
  17 C2  :1s     0.0088  -0.0090   0.0086   0.0752  -0.0058   0.2001   1.4571
  18 C2  :2px   -0.0000  -0.0132   0.0006   0.0290   0.0001  -0.1296   0.0530
  19 C2  :2py    0.0034   0.1648  -0.0028   0.0399   0.0041   0.0181  -0.2602
  20 C2  :2pz    0.1924  -0.0030  -0.2860  -0.0005   0.4302   0.0040   0.0028
  21 C2  :2px   -0.0039   0.0196  -0.0043  -0.0263  -0.0063   0.2148  -0.0015
  22 C2  :2py    0.0044   0.0986   0.0014   0.0615   0.0159  -0.3194  -0.9836
  23 C2  :2pz    0.1022  -0.0021  -0.1888   0.0010   0.7400   0.0161   0.0224
  24 C2  :3d2-   0.0000  -0.0106   0.0003   0.0256  -0.0001   0.0074  -0.0069
  25 C2  :3d1-   0.0105   0.0006  -0.0126   0.0004  -0.0090  -0.0001  -0.0007
  27 C2  :3d1+   0.0009  -0.0000   0.0351  -0.0003   0.0163   0.0000   0.0000
  28 C2  :3d2+   0.0001   0.0216   0.0002   0.0386   0.0004  -0.0063   0.0117
  29 C3  :1s     0.0000  -0.0019  -0.0000  -0.0373  -0.0006  -0.0013  -0.0320
  30 C3  :1s    -0.0001   0.0080   0.0001   0.0728   0.0013   0.0078   0.0201
  31 C3  :1s    -0.0005  -0.0210   0.0006   0.2513   0.0030   0.0975   0.7498
  32 C3  :2px   -0.0031   0.1527  -0.0018  -0.1461  -0.0014   0.0438   0.1357
  33 C3  :2py    0.0011  -0.3957   0.0017  -0.0367  -0.0035   0.0500  -0.0558
  34 C3  :2pz    0.4042   0.0020   0.1993  -0.0025  -0.0281  -0.0026  -0.0027
  35 C3  :2px   -0.0011   0.1097   0.0000  -0.0959   0.0059   0.1487   0.4162
  36 C3  :2py    0.0005  -0.2167  -0.0021  -0.0180  -0.0182   0.2953  -0.0446
  37 C3  :2pz    0.2129   0.0009   0.1281  -0.0091  -0.0484  -0.0197  -0.0241
  38 C3  :3d2-   0.0020   0.0029   0.0013   0.0075  -0.0010   0.0004   0.0110
  39 C3  :3d1-  -0.0169   0.0049  -0.0058  -0.0004  -0.0076   0.0001  -0.0014
  40 C3  :3d0    0.0043   0.0191   0.0026  -0.0014  -0.0021   0.0011  -0.0059
  41 C3  :3d1+   0.0128  -0.0024   0.0187   0.0002  -0.0308  -0.0005   0.0006
  42 C3  :3d2+   0.0014   0.0204   0.0006  -0.0027  -0.0004   0.0077  -0.0121
  43 H   :1s    -0.1933   0.1387  -0.1141  -0.0247   0.0775   0.0095  -0.0277
  44 H   :1s    -0.1216   0.0948  -0.0973  -0.0899   0.1562  -0.0436  -0.6994
  48 H   :1s     0.2100   0.1060   0.1233  -0.0209  -0.0850   0.0077  -0.0194
  49 H   :1s     0.1325   0.0723   0.1029  -0.0768  -0.1903  -0.0365  -0.5914
  53 H   :1s    -0.0176  -0.2698  -0.0091   0.0117   0.0076  -0.0136   0.0377
  54 H   :1s    -0.0115  -0.1999  -0.0051  -0.0799   0.0308  -0.3234   0.1101
  56 H   :2py    0.0013   0.0126   0.0005  -0.0004  -0.0002   0.0021   0.0025
  58 H   :1s    -0.0002  -0.0257   0.0002   0.0015  -0.0015   0.1555  -0.0037
  59 H   :1s    -0.0028  -0.0246  -0.0016  -0.0130  -0.0080   2.0100  -0.6916
  61 H   :2py    0.0001   0.0014  -0.0001  -0.0162  -0.0002   0.0037   0.0036
  62 H   :2pz    0.0039  -0.0001  -0.0116   0.0002  -0.0210  -0.0002   0.0001
  63 H   :1s    -0.0011  -0.1268  -0.0001  -0.1242   0.0011  -0.0050  -0.0312
  64 H   :1s    -0.0010  -0.0931   0.0006  -0.2350   0.0087  -0.5927  -1.8348
  67 H   :2pz    0.0035   0.0001  -0.0059   0.0000   0.0163   0.0001   0.0002

    Orbital        16       17       18       19       20       21
   1 C1  :1s    -0.0029   0.0067  -0.0002  -0.0020  -0.0938   0.0053
   2 C1  :1s     0.0597   0.0200   0.0018   0.1276  -0.0158   0.8183
   3 C1  :1s    -0.3510  -0.1658  -0.0732   0.0166   4.1217  -0.2929
   4 C1  :2px    0.0260  -0.1389   0.0175   0.0000   0.2103   0.0524
   5 C1  :2py    0.1029   0.1019   0.0018   0.0624  -0.1091  -0.1195
   6 C1  :2pz   -0.0029  -0.0114   0.0142   0.0017  -0.0123   0.0047
   7 C1  :2px   -0.3252  -0.6681  -0.0001  -0.5763   3.4450  -0.1755
   8 C1  :2py    0.1677   0.3993  -0.0228  -0.4969  -1.8448   0.1705
   9 C1  :2pz    0.0035  -0.0323  -0.1782   0.0042   0.0041  -0.0056
  10 C1  :3d2-   0.0020  -0.0069   0.0007   0.0042   0.0280  -0.0893
  11 C1  :3d1-   0.0005  -0.0012  -0.0115   0.0000   0.0004  -0.0001
  12 C1  :3d0   -0.0019   0.0016   0.0008   0.0044   0.0279  -0.0602
  14 C1  :3d2+   0.0006   0.0049  -0.0004   0.0331  -0.0158   0.0487
  15 C2  :1s     0.0265  -0.0539   0.0068  -0.0795   0.0823   0.0178
  16 C2  :1s     0.0082  -0.0115  -0.0104   0.1203  -0.0657   0.3053
  17 C2  :1s    -0.2515   1.6238  -0.1192   1.9475  -4.1498  -0.4702
  18 C2  :2px   -0.0240   0.0238  -0.0027   0.2217   0.1301  -0.5010
  19 C2  :2py    0.0825  -0.0690   0.0207   0.2413  -0.1493   0.1103
  20 C2  :2pz   -0.0014   0.0122   0.0213  -0.0023   0.0024  -0.0016
  21 C2  :2px   -0.4746  -0.1286  -0.0464   1.5950   3.6056   0.7503
  22 C2  :2py    0.3740  -0.2696   0.1377   1.4991  -1.7118  -0.2487
  23 C2  :2pz   -0.0150   0.0776   0.4547  -0.0105   0.0136   0.0031
  24 C2  :3d2-   0.0046   0.0150  -0.0021  -0.0194  -0.0334  -0.0098
  25 C2  :3d1-   0.0005  -0.0015  -0.0225  -0.0001   0.0004  -0.0004
  26 C2  :3d0   -0.0111   0.0088   0.0002  -0.0036   0.0120  -0.0243
  27 C2  :3d1+   0.0002  -0.0020  -0.0132   0.0006  -0.0006  -0.0001
  28 C2  :3d2+  -0.0121  -0.0219   0.0025  -0.0050   0.0068   0.0124
  29 C3  :1s    -0.1308   0.0329  -0.0049   0.0826  -0.0058  -0.0123
  30 C3  :1s     0.1079  -0.0280   0.0055   0.0147  -0.0053   0.0790
  31 C3  :1s     2.4092  -0.5515   0.0775  -2.1738  -0.3766  -0.3162
  32 C3  :2px    0.0704  -0.0963   0.0193   0.1528   0.0329  -0.1447
  33 C3  :2py    0.1144   0.2561  -0.0328   0.0891   0.2191   0.1696
  34 C3  :2pz    0.0055  -0.0468  -0.3229   0.0082  -0.0255  -0.0020
  35 C3  :2px    0.3169  -0.4458   0.1079   1.9335  -0.1111  -0.1670
  36 C3  :2py    0.3388   1.2709  -0.1978   0.6552   1.0995  -0.2336
  37 C3  :2pz    0.0333  -0.2238  -1.5533   0.0352  -0.0252  -0.0031
  38 C3  :3d2-  -0.0016   0.0032   0.0006   0.0206   0.0004  -0.0239
  40 C3  :3d0    0.0006   0.0129   0.0011  -0.0166  -0.0092   0.0028
  41 C3  :3d1+  -0.0005  -0.0006   0.0135   0.0006   0.0011   0.0024
  42 C3  :3d2+   0.0086   0.0128  -0.0005   0.0039  -0.0391  -0.0462
  43 H   :1s     0.0052   0.0396  -0.0718  -0.0709  -0.0457  -0.0446
  44 H   :1s    -0.8784   0.8632  -1.6990  -0.1929   0.2180   0.1195
  45 H   :2px    0.0030  -0.0033   0.0040   0.0053  -0.0092  -0.0105
  46 H   :2py    0.0027   0.0062   0.0029   0.0029  -0.0061  -0.0124
  48 H   :1s    -0.0012   0.0445   0.0660  -0.0646  -0.0455  -0.0186
  49 H   :1s    -0.9855   1.0946   1.5282  -0.2243   0.2195   0.1113
  51 H   :2py    0.0031   0.0053  -0.0040   0.0032  -0.0039  -0.0104
  53 H   :1s    -0.0384  -0.0871   0.0058   0.0077   0.1058   0.2192
  54 H   :1s    -1.4273  -1.4716   0.0672   0.1929  -1.1199  -0.0197
  55 H   :2px    0.0011   0.0029  -0.0001   0.0122   0.0064   0.0021
  58 H   :1s     0.0161   0.0432  -0.0026   0.0573  -0.2738   0.4089
  59 H   :1s    -0.2506  -0.7961   0.0532  -0.3243   2.0001  -0.5064
  60 H   :2px    0.0033   0.0010   0.0003  -0.0044   0.0088  -0.0126
  63 H   :1s     0.0756   0.0180   0.0008   0.0006  -0.0226   0.0090
  64 H   :1s     0.7227  -0.7730   0.1914   0.7835  -0.5838   0.0816
  65 H   :2px   -0.0037  -0.0057   0.0002   0.0080   0.0175   0.0171

  Total CPU  time used in SIRIUS :   0.49 seconds
  Total wall time used in SIRIUS :   0.97 seconds

 
     Date and time (Linux)  : Sat Apr 13 14:16:11 2024
     Host name              : node100                                 


                     .---------------------------------------.
                     | End of Wave Function Section (SIRIUS) |
                     `---------------------------------------'


 Center of mass dipole origin  :  -14.507921    0.323012   -0.004373

 Center of mass gauge origin   :  -14.507921    0.323012   -0.004373


                 .------------------------------------------------.
                 | Starting in Static Property Section (ABACUS) - |
                 `------------------------------------------------'


 
     Date and time (Linux)  : Sat Apr 13 14:16:11 2024
     Host name              : node100                                 
  Total CPU  time used in TWOINT:   0.89 seconds
  Total wall time used in TWOINT:   0.90 seconds

 Largest deviation from tra-rot symmetry is in gradient element  9:  4.63E-07


   ***************************************************************************
   ************************ FINAL RESULTS from ABACUS ************************
   ***************************************************************************


 
     Date and time (Linux)  : Sat Apr 13 14:16:12 2024
     Host name              : node100                                 


                             Molecular geometry (au)
                             -----------------------

 C1       -16.9202108807            0.6047690518           -0.0083903840
 C2       -14.7297726374           -0.5131173347           -0.0069541921
 C3       -12.2409466390            0.8130168708           -0.0009826576
 H        -11.0919553605            0.1654077277           -1.5935871439
 H        -11.2206457096            0.3942913560            1.7481289464
 H        -12.4600036915            2.8645035520           -0.1527087682
 H        -18.7140711994            1.5229302841           -0.0078423634
 H        -14.6811121897           -2.5656433654            0.0223554601





                        Molecular wave function and energy
                        ----------------------------------

     Spatial symmetry   1 ( A   )
     Spin multiplicity  1
     2 * M_S            0
     State number       1
     Total charge       1

     Total energy       -116.1468793991 au (Hartrees)
                         -3160.51736012 eV
                           -304943.5848 kJ/mol
                            -72883.2660 kcal/mol


                   Scalar Breit-Pauli relativistic corrections
                   -------------------------------------------

     Darwin correction:                          0.1784173975 au
     Mass-velocity correction:                  -0.2222587190 au

     Total relativistic correction:             -0.0438413215 au ( 0.0377%)
     Non-relativistic + relativistic energy:  -116.1907207206 au



      (Note that these corrections are NOT included in the results below.)


                             Molecular gradient (au)
                             -----------------------

 C1        -0.0437939825            0.0265030018            0.0002284401
 C2         0.0417778643           -0.0108904607           -0.0016682122
 C3        -0.0218323759           -0.0251123591            0.0019886912
 H          0.0070735478            0.0006591071           -0.0053133695
 H          0.0066007647            0.0017470723            0.0053503517
 H         -0.0017603164            0.0094935638           -0.0010444823
 H          0.0036133222           -0.0019352228            0.0001868761
 H          0.0083211757           -0.0004647024            0.0002717049





                                  Dipole moment
                                  -------------

                 au               Debye          C m (/(10**-30)
              0.956905           2.432210           8.112980


                             Dipole moment components
                             ------------------------

                 au               Debye          C m (/(10**-30)

      x     -0.95495931        -2.42726431        -8.09648222
      y     -0.06039620        -0.15351181        -0.51206029
      z      0.00852072         0.02165750         0.07224166


   Units:   1 a.u. =   2.54175 Debye 
            1 a.u. =   8.47835 (10**-30) C m (SI)




   Interatomic separations (in Angstrom):
   --------------------------------------

            C1          C2          C3          H           H           H     
            ------      ------      ------      ------      ------      ------
 C1    :    0.000000
 C2    :    1.301356    0.000000
 C3    :    2.478614    1.492329    0.000000
 H     :    3.204667    2.130654    1.094254    0.000000
 H     :    3.158027    2.131059    1.094225    1.773811    0.000000
 H     :    2.646980    2.154825    1.094720    1.773557    1.775004    0.000000
 H     :    1.066388    2.367743    3.445970    4.181977    4.116328    3.385666
 H     :    2.054000    1.086566    2.205488    2.535193    2.576954    3.105980

            H           H     
            ------      ------
 H     :    0.000000
 H     :    3.039067    0.000000


  Max    interatomic separation is    4.1820 Angstrom (    7.9028 Bohr)
  between atoms    7 and    4, "H     " and "H     ".

  Min HX interatomic separation is    1.0664 Angstrom (    2.0152 Bohr)

  Min YX interatomic separation is    1.3014 Angstrom (    2.4592 Bohr)


  Bond distances (Angstrom):
  --------------------------

                  atom 1     atom 2       distance
                  ------     ------       --------
  bond distance:  C2         C1           1.301356
  bond distance:  C3         C2           1.492329
  bond distance:  H          C3           1.094254
  bond distance:  H          C3           1.094225
  bond distance:  H          C3           1.094720
  bond distance:  H          C1           1.066388
  bond distance:  H          C2           1.086566


  Bond angles (degrees):
  ----------------------

                  atom 1     atom 2     atom 3         angle
                  ------     ------     ------         -----
  bond angle:     C2         C1         H            179.917
  bond angle:     C1         C2         C3           124.912
  bond angle:     C1         C2         H            118.393
  bond angle:     C3         C2         H            116.687
  bond angle:     C2         C3         H            109.967
  bond angle:     C2         C3         H            110.001
  bond angle:     C2         C3         H            111.884
  bond angle:     H          C3         H            108.294
  bond angle:     H          C3         H            108.235
  bond angle:     H          C3         H            108.367


  Total CPU  time used in ABACUS:   0.92 seconds
  Total wall time used in ABACUS:   0.93 seconds


                   .-------------------------------------------.
                   | End of Static Property Section (ABACUS) - |
                   `-------------------------------------------'


Building simple model Hessian by Roland Lindh ...

Initial model Hessian in internal coordinates has been calculated


           :::::::::::::::::::::::::::::::::::::::::::::::::::::::::::
           ::::::::::::::: Optimization Control Center :::::::::::::::
           :::::::::::::::::::::::::::::::::::::::::::::::::::::::::::



                                Next geometry (au)
                                ------------------

 C1       -16.8799449869            0.5728310292           -0.0050530123
 C2       -14.7324311336           -0.5067895616            0.0397144416
 C3       -12.2295646139            0.8591135094            0.0012362694
 H        -11.1510452413            0.1614525235           -1.6007458808
 H        -11.2265999387            0.3809733162            1.7280200930
 H        -12.4146133041            2.8943498346           -0.1369312798
 H        -18.6859507652            1.4848914854           -0.0424406806
 H        -14.7385683242           -2.5606639945            0.0162189467





   Interatomic separations (in Angstrom):
   --------------------------------------

            C1          C2          C3          H           H           H     
            ------      ------      ------      ------      ------      ------
 C1    :    0.000000
 C2    :    1.272162    0.000000
 C3    :    2.465536    1.508992    0.000000
 H     :    3.154525    2.114325    1.086591    0.000000
 H     :    3.130684    2.112030    1.086598    1.765786    0.000000
 H     :    2.664134    2.180007    1.083912    1.771605    1.771478    0.000000
 H     :    1.070837    2.342998    3.432661    4.131468    4.098821    3.401798
 H     :    2.008417    1.086940    2.244498    2.532035    2.587964    3.138757

            H           H     
            ------      ------
 H     :    0.000000
 H     :    2.991222    0.000000


  Max    interatomic separation is    4.1315 Angstrom (    7.8073 Bohr)
  between atoms    7 and    4, "H     " and "H     ".

  Min HX interatomic separation is    1.0708 Angstrom (    2.0236 Bohr)

  Min YX interatomic separation is    1.2722 Angstrom (    2.4040 Bohr)


  Bond distances (Angstrom):
  --------------------------

                  atom 1     atom 2       distance
                  ------     ------       --------
  bond distance:  C2         C1           1.272162
  bond distance:  C3         C2           1.508992
  bond distance:  H          C3           1.086591
  bond distance:  H          C3           1.086598
  bond distance:  H          C3           1.083912
  bond distance:  H          C1           1.070837
  bond distance:  H          C2           1.086940


  Bond angles (degrees):
  ----------------------

                  atom 1     atom 2     atom 3         angle
                  ------     ------     ------         -----
  bond angle:     C2         C1         H            179.895
  bond angle:     C1         C2         C3           124.659
  bond angle:     C1         C2         H            116.498
  bond angle:     C3         C2         H            118.779
  bond angle:     C2         C3         H            107.987
  bond angle:     C2         C3         H            107.808
  bond angle:     C2         C3         H            113.426
  bond angle:     H          C3         H            108.688
  bond angle:     H          C3         H            109.416
  bond angle:     H          C3         H            109.404




                             Optimization information
                             ------------------------

 Iteration number               :       0
 End of optimization            :       F 
 Energy at this geometry is     :    -116.146879399071
 Norm of gradient               :       0.077026116203
 Norm of step                   :       0.205159785888
 Updated trust radius           :       0.500000000000
 Total effective Hessian index  :       0




 **************************************************************************************
 ****************** Output of molecule and basis set info suppressed ******************
 **************************************************************************************



                     .---------------------------------------.
                     | Starting in Integral Section (HERMIT) |
                     `---------------------------------------'



 ***************************************************************************************
 ****************** Output from **INTEGRALS input processing (HERMIT) ******************
 ***************************************************************************************


 - Using defaults, no **INTEGRALS input found

 Default print level:       -1

 Calculation of one- and two-electron Hamiltonian integrals.

 Center of mass  (bohr):    -14.494798869886      0.328499638818      0.009615527420
 Operator center (bohr):      0.000000000000      0.000000000000      0.000000000000
 Gauge origin    (bohr):      0.000000000000      0.000000000000      0.000000000000
 Dipole origin   (bohr):      0.000000000000      0.000000000000      0.000000000000


                      Nuclear contribution to dipole moments
                      --------------------------------------

                 au               Debye          C m (/(10**-30)

      x   -331.26842198      -842.00028843     -2808.61064366
      y      7.91193303        20.11012656        67.08016170
      z      0.17950739         0.45626225         1.52192704


  Total CPU  time used in HERMIT:   0.02 seconds
  Total wall time used in HERMIT:   0.02 seconds


                        .----------------------------------.
                        | End of Integral Section (HERMIT) |
                        `----------------------------------'



                   .--------------------------------------------.
                   | Starting in Wave Function Section (SIRIUS) |
                   `--------------------------------------------'

* Read MO coefficients from SIRIUS.RST with label "NEWORB  " and header info: 13Apr24  FOCKDIIS

 **********************************************************************
 *SIRIUS* a direct, restricted step, second order MCSCF program       *
 **********************************************************************

 (Wave function specification suppressed here, see output above for initial geometry.)


 ***********************************************
 ***** DIIS acceleration of SCF iterations *****
 ***********************************************

 C1-DIIS algorithm; max error vectors =    8

 Iter      Total energy        Error norm    Delta(E)  DIIS dim.
 -----------------------------------------------------------------------------

Calculating AOSUPINT

---> (Re)generating AOTWOINT

 Threshold for neglecting two-electron integrals:  1.00D-12
 HERMIT - Number of two-electron integrals written:     2458026 ( 94.7% )
 HERMIT - Megabytes written:                             28.147

  Total CPU  time used in TWOINT:   0.27 seconds
  Total wall time used in TWOINT:   0.28 seconds
  Time used in TWOINT     is       0.27 seconds
  CPU  time used in MAKE_AOTWOINT is   0.27 seconds
  WALL time used in MAKE_AOTWOINT is   0.28 seconds
     (Precalculated AO two-electron integrals are transformed to P-supermatrix elements.
      Threshold for discarding integrals :  1.00D-12 )

@  1    -116.148718759        1.03704D-01   -1.84D-03    1
      Virial theorem: -V/T =      2.000693
@    MULPOP   C1      0.19; C2     -0.13; C3     -0.40; H       0.23; H       0.23; H       0.20; H       0.37; H       0.31; 
 -----------------------------------------------------------------------------
@  2    -116.149668068        2.79305D-02   -9.49D-04    2
      Virial theorem: -V/T =      2.000240
@    MULPOP   C1      0.20; C2     -0.15; C3     -0.39; H       0.23; H       0.23; H       0.20; H       0.37; H       0.31; 
 -----------------------------------------------------------------------------
@  3    -116.149766425        9.00511D-03   -9.84D-05    3
      Virial theorem: -V/T =      2.000387
@    MULPOP   C1      0.20; C2     -0.15; C3     -0.39; H       0.23; H       0.23; H       0.20; H       0.37; H       0.31; 
 -----------------------------------------------------------------------------
@  4    -116.149783725        3.52962D-03   -1.73D-05    4
      Virial theorem: -V/T =      2.000362
@    MULPOP   C1      0.20; C2     -0.16; C3     -0.39; H       0.23; H       0.23; H       0.20; H       0.37; H       0.31; 
 -----------------------------------------------------------------------------
@  5    -116.149787206        1.30472D-03   -3.48D-06    5
      Virial theorem: -V/T =      2.000370
@    MULPOP   C1      0.20; C2     -0.16; C3     -0.39; H       0.23; H       0.23; H       0.20; H       0.37; H       0.31; 
 -----------------------------------------------------------------------------
@  6    -116.149787755        5.15300D-04   -5.49D-07    6
      Virial theorem: -V/T =      2.000376
@    MULPOP   C1      0.20; C2     -0.16; C3     -0.39; H       0.23; H       0.23; H       0.20; H       0.37; H       0.31; 
 -----------------------------------------------------------------------------
@  7    -116.149787854        2.98755D-04   -9.91D-08    7
      Virial theorem: -V/T =      2.000375
@    MULPOP   C1      0.20; C2     -0.16; C3     -0.39; H       0.23; H       0.23; H       0.20; H       0.37; H       0.31; 
 -----------------------------------------------------------------------------
@  8    -116.149787897        1.83205D-04   -4.36D-08    8
      Virial theorem: -V/T =      2.000375
@    MULPOP   C1      0.20; C2     -0.16; C3     -0.39; H       0.23; H       0.23; H       0.20; H       0.37; H       0.31; 
 -----------------------------------------------------------------------------
@  9    -116.149787920        1.04002D-04   -2.27D-08    8
      Virial theorem: -V/T =      2.000375
@    MULPOP   C1      0.20; C2     -0.16; C3     -0.39; H       0.23; H       0.23; H       0.20; H       0.37; H       0.31; 
 -----------------------------------------------------------------------------
@ 10    -116.149787930        3.55868D-05   -1.03D-08    8
      Virial theorem: -V/T =      2.000375
@    MULPOP   C1      0.20; C2     -0.16; C3     -0.39; H       0.23; H       0.23; H       0.20; H       0.37; H       0.31; 
 -----------------------------------------------------------------------------
@ 11    -116.149787931        7.67411D-06   -6.31D-10    8

@ *** DIIS converged in  11 iterations !
@     Converged SCF energy, gradient:   -116.149787931093    7.67D-06
    - total time used in SIRFCK :              0.00 seconds


 *** SCF orbital energy analysis ***

 Only the 20 lowest virtual orbital energies printed in each symmetry.

 Number of electrons        :   22
 Closed shell orbitals      :   11

 Sym       Hartree-Fock orbital energies

1 A     -11.60796503   -11.53666745   -11.45743482    -1.36542398    -1.18287312
         -1.04216099    -0.92895955    -0.81464880    -0.80281511    -0.76049684
         -0.67751632    -0.20434432    -0.08127289     0.02545028     0.06642622
          0.08656923     0.12889377     0.13099924     0.19082769     0.33119061
          0.39825717     0.46421124     0.54825624     0.57206556     0.59425866
          0.62055073     0.63683825     0.72860636     0.74368316     0.77743954
          0.87243508

    E(LUMO) :    -0.20434432 au (symmetry 1)
  - E(HOMO) :    -0.67751632 au (symmetry 1)
  ------------------------------------------
    gap     :     0.47317200 au

 --- Writing SIRIFC interface file

--------------------------------------------------------------------------------


     .--------------------------------------------------.
     | HF-SCF KT IPs [a.u. & eV] from Koopmans' theorem |
     `--------------------------------------------------'


     HF-SCF KT symmetry 1 ( A  ) in point group C1  -- 11 principal poles with pole strength 1

   ============  ============  ============  ============  ============
      11.607965     11.536667     11.457435      1.365424      1.182873
     315.868796    313.928690    311.772661     37.155076     32.187615
   ============  ============  ============  ============  ============

   ============  ============  ============  ============  ============
       1.042161      0.928960      0.814649      0.802815      0.760497
      28.358643     25.278275     22.167721     21.845710     20.694172
   ============  ============  ============  ============  ============

   ============
       0.677516
      18.436157
   ============

@ Summary of HF-SCF KT ionization potentials [eV]:

@ Symmetry 1 (A  ) :   315.869     313.929     311.773      37.155      32.188
@                       28.359      25.278      22.168      21.846      20.694
@                       18.436

  === End of HF-SCF KT output ===
--------------------------------------------------------------------------------


 CPU and wall time for SCF :       0.446       0.715


                       .-----------------------------------.
                       | --- Final results from SIRIUS --- |
                       `-----------------------------------'


@    Spin multiplicity:           1
@    Spatial symmetry:            1 ( irrep  A   in C1  )
@    Total charge of molecule:    1

@    Final HF energy:            -116.149787931093                 
@    Nuclear repulsion:            65.003823253227
@    Electronic energy:          -181.153611184320

@    Final gradient norm:           0.000007674110

 
     Date and time (Linux)  : Sat Apr 13 14:16:13 2024
     Host name              : node100                                 

  Total CPU  time used in SIRIUS :   0.46 seconds
  Total wall time used in SIRIUS :   0.75 seconds

 
     Date and time (Linux)  : Sat Apr 13 14:16:13 2024
     Host name              : node100                                 


                     .---------------------------------------.
                     | End of Wave Function Section (SIRIUS) |
                     `---------------------------------------'

 Trust radius increased due to good ratio.
 Updated trust radius   0.50000

 Center of mass dipole origin  :  -14.494799    0.328500    0.009616

 Center of mass gauge origin   :  -14.494799    0.328500    0.009616


                 .------------------------------------------------.
                 | Starting in Static Property Section (ABACUS) - |
                 `------------------------------------------------'


 
     Date and time (Linux)  : Sat Apr 13 14:16:13 2024
     Host name              : node100                                 

 Largest deviation from tra-rot symmetry is in gradient element  6:  1.31E-06


   ***************************************************************************
   ************************ FINAL RESULTS from ABACUS ************************
   ***************************************************************************


 
     Date and time (Linux)  : Sat Apr 13 14:16:14 2024
     Host name              : node100                                 
  Total CPU  time used in ABACUS:   0.92 seconds
  Total wall time used in ABACUS:   0.93 seconds


                   .-------------------------------------------.
                   | End of Static Property Section (ABACUS) - |
                   `-------------------------------------------'



           :::::::::::::::::::::::::::::::::::::::::::::::::::::::::::
           ::::::::::::::: Optimization Control Center :::::::::::::::
           :::::::::::::::::::::::::::::::::::::::::::::::::::::::::::



                                Next geometry (au)
                                ------------------

 C1       -16.8603133372            0.5548482083           -0.0526182310
 C2       -14.7350855222           -0.4998137379           -0.1363719742
 C3       -12.2017420405            0.8832131468           -0.0271403373
 H        -11.0962509659            0.2173672380           -1.6090063386
 H        -11.2931292888            0.3234061302            1.7183427210
 H        -12.3994620807            2.9054565095           -0.0994686747
 H        -18.6767468411            1.4592283307            0.0232102619
 H        -14.7959882316           -2.5575476832            0.1830714700





   Interatomic separations (in Angstrom):
   --------------------------------------

            C1          C2          C3          H           H           H     
            ------      ------      ------      ------      ------      ------
 C1    :    0.000000
 C2    :    1.256272    0.000000
 C3    :    2.471363    1.528445    0.000000
 H     :    3.164491    2.111683    1.080320    0.000000
 H     :    3.093918    2.114374    1.082639    1.764729    0.000000
 H     :    2.668373    2.185211    1.075909    1.771194    1.770602    0.000000
 H     :    1.074514    2.330784    3.440060    4.155651    4.053697    3.409435
 H     :    1.980282    1.102420    2.283026    2.624620    2.533813    3.160370

            H           H     
            ------      ------
 H     :    0.000000
 H     :    2.956786    0.000000


  Max    interatomic separation is    4.1557 Angstrom (    7.8530 Bohr)
  between atoms    7 and    4, "H     " and "H     ".

  Min HX interatomic separation is    1.0745 Angstrom (    2.0305 Bohr)

  Min YX interatomic separation is    1.2563 Angstrom (    2.3740 Bohr)


  Bond distances (Angstrom):
  --------------------------

                  atom 1     atom 2       distance
                  ------     ------       --------
  bond distance:  C2         C1           1.256272
  bond distance:  C3         C2           1.528445
  bond distance:  H          C3           1.080320
  bond distance:  H          C3           1.082639
  bond distance:  H          C3           1.075909
  bond distance:  H          C1           1.074514
  bond distance:  H          C2           1.102420


  Bond angles (degrees):
  ----------------------

                  atom 1     atom 2     atom 3         angle
                  ------     ------     ------         -----
  bond angle:     C2         C1         H            179.860
  bond angle:     C1         C2         C3           124.829
  bond angle:     C1         C2         H            114.031
  bond angle:     C3         C2         H            119.525
  bond angle:     C2         C3         H            106.827
  bond angle:     C2         C3         H            106.904
  bond angle:     C2         C3         H            112.931
  bond angle:     H          C3         H            109.350
  bond angle:     H          C3         H            110.456
  bond angle:     H          C3         H            110.224




                             Optimization information
                             ------------------------

 Iteration number               :       1
 End of optimization            :       F 
 Energy at this geometry is     :    -116.149787931093
 Energy change from last geom.  :      -0.002908532023
 Predicted change               :      -0.002473835668
 Ratio, actual/predicted change :       1.175717554692
 Norm of gradient               :       0.022425240234
 Norm of step                   :       0.445533311542
 Updated trust radius           :       0.500000000000
 Total effective Hessian index  :       0




 **************************************************************************************
 ****************** Output of molecule and basis set info suppressed ******************
 **************************************************************************************



                     .---------------------------------------.
                     | Starting in Integral Section (HERMIT) |
                     `---------------------------------------'



 ***************************************************************************************
 ****************** Output from **INTEGRALS input processing (HERMIT) ******************
 ***************************************************************************************


 - Using defaults, no **INTEGRALS input found

 Default print level:       -1

 Calculation of one- and two-electron Hamiltonian integrals.

 Center of mass  (bohr):    -14.482799402999      0.332006453141     -0.057889287363
 Operator center (bohr):      0.000000000000      0.000000000000      0.000000000000
 Gauge origin    (bohr):      0.000000000000      0.000000000000      0.000000000000
 Dipole origin   (bohr):      0.000000000000      0.000000000000      0.000000000000


                      Nuclear contribution to dipole moments
                      --------------------------------------

                 au               Debye          C m (/(10**-30)

      x   -331.04442281      -841.43093936     -2806.71149959
      y      7.97739623        20.27651741        67.63518183
      z     -1.08063381        -2.74669701        -9.16199503


  Total CPU  time used in HERMIT:   0.02 seconds
  Total wall time used in HERMIT:   0.02 seconds


                        .----------------------------------.
                        | End of Integral Section (HERMIT) |
                        `----------------------------------'



                   .--------------------------------------------.
                   | Starting in Wave Function Section (SIRIUS) |
                   `--------------------------------------------'

* Read MO coefficients from SIRIUS.RST with label "NEWORB  " and header info: 13Apr24  FOCKDIIS

 **********************************************************************
 *SIRIUS* a direct, restricted step, second order MCSCF program       *
 **********************************************************************

 (Wave function specification suppressed here, see output above for initial geometry.)


 ***********************************************
 ***** DIIS acceleration of SCF iterations *****
 ***********************************************

 C1-DIIS algorithm; max error vectors =    8

 Iter      Total energy        Error norm    Delta(E)  DIIS dim.
 -----------------------------------------------------------------------------

Calculating AOSUPINT

---> (Re)generating AOTWOINT

 Threshold for neglecting two-electron integrals:  1.00D-12
 HERMIT - Number of two-electron integrals written:     2460199 ( 94.8% )
 HERMIT - Megabytes written:                             28.175

  Total CPU  time used in TWOINT:   0.28 seconds
  Total wall time used in TWOINT:   0.28 seconds
  Time used in TWOINT     is       0.28 seconds
  CPU  time used in MAKE_AOTWOINT is   0.28 seconds
  WALL time used in MAKE_AOTWOINT is   0.28 seconds
     (Precalculated AO two-electron integrals are transformed to P-supermatrix elements.
      Threshold for discarding integrals :  1.00D-12 )

@  1    -116.143207916        2.28494D-01    6.58D-03    1
      Virial theorem: -V/T =      2.000090
[...]
 -----------------------------------------------------------------------------
@  3    -116.150448476        9.96614D-05   -2.23D-08    3
      Virial theorem: -V/T =      2.000262
@    MULPOP   C1      0.21; C2     -0.18; C3     -0.37; H       0.23; H       0.23; H       0.20; H       0.37; H       0.31; 
 -----------------------------------------------------------------------------
@  4    -116.150448479        4.39046D-05   -2.67D-09    4
      Virial theorem: -V/T =      2.000262
@    MULPOP   C1      0.21; C2     -0.18; C3     -0.37; H       0.23; H       0.23; H       0.20; H       0.37; H       0.31; 
 -----------------------------------------------------------------------------
@  5    -116.150448479        2.42583D-05   -7.06D-10    5
      Virial theorem: -V/T =      2.000262
@    MULPOP   C1      0.21; C2     -0.18; C3     -0.37; H       0.23; H       0.23; H       0.20; H       0.37; H       0.31; 
 -----------------------------------------------------------------------------
@  6    -116.150448480        1.47735D-05   -2.94D-10    6
      Virial theorem: -V/T =      2.000262
@    MULPOP   C1      0.21; C2     -0.18; C3     -0.37; H       0.23; H       0.23; H       0.20; H       0.37; H       0.31; 
 -----------------------------------------------------------------------------
@  7    -116.150448480        8.52676D-06   -1.47D-10    7

@ *** DIIS converged in   7 iterations !
@     Converged SCF energy, gradient:   -116.150448479889    8.53D-06
    - total time used in SIRFCK :              0.00 seconds


 *** SCF orbital energy analysis ***

 Only the 20 lowest virtual orbital energies printed in each symmetry.

 Number of electrons        :   22
 Closed shell orbitals      :   11

 Sym       Hartree-Fock orbital energies

1 A     -11.60628130   -11.53517335   -11.45743741    -1.36525386    -1.18552557
         -1.04072376    -0.92204930    -0.81363853    -0.80302503    -0.76252479
         -0.68060464    -0.20263269    -0.07775272     0.02600675     0.06248753
          0.08762675     0.13159917     0.13180854     0.19092791     0.33654723
          0.39533106     0.46357686     0.54849828     0.56035727     0.59438840
          0.62396704     0.64039588     0.73093131     0.74341991     0.78171706
          0.86730210

    E(LUMO) :    -0.20263269 au (symmetry 1)
  - E(HOMO) :    -0.68060464 au (symmetry 1)
  ------------------------------------------
    gap     :     0.47797195 au

 --- Writing SIRIFC interface file

--------------------------------------------------------------------------------


     .--------------------------------------------------.
     | HF-SCF KT IPs [a.u. & eV] from Koopmans' theorem |
     `--------------------------------------------------'


     HF-SCF KT symmetry 1 ( A  ) in point group C1  -- 11 principal poles with pole strength 1

   ============  ============  ============  ============  ============
      11.606281     11.535173     11.457437      1.365254      1.185526
     315.822980    313.888034    311.772731     37.150447     32.259792
   ============  ============  ============  ============  ============

   ============  ============  ============  ============  ============
       1.040724      0.922049      0.813639      0.803025      0.762525
      28.319534     25.090238     22.140231     21.851422     20.749355
   ============  ============  ============  ============  ============

   ============
       0.680605
      18.520194
   ============

@ Summary of HF-SCF KT ionization potentials [eV]:

@ Symmetry 1 (A  ) :   315.823     313.888     311.773      37.150      32.260
@                       28.320      25.090      22.140      21.851      20.749
@                       18.520

  === End of HF-SCF KT output ===
--------------------------------------------------------------------------------


 CPU and wall time for SCF :       0.408       0.652


                       .-----------------------------------.
                       | --- Final results from SIRIUS --- |
                       `-----------------------------------'


@    Spin multiplicity:           1
@    Spatial symmetry:            1 ( irrep  A   in C1  )
@    Total charge of molecule:    1

@    Final HF energy:            -116.150448479889                 
@    Nuclear repulsion:            64.804656097353
@    Electronic energy:          -180.955104577242

@    Final gradient norm:           0.000008526764

 
     Date and time (Linux)  : Sat Apr 13 14:16:35 2024
     Host name              : node100                                 

  Total CPU  time used in SIRIUS :   0.42 seconds
  Total wall time used in SIRIUS :   0.70 seconds

 
     Date and time (Linux)  : Sat Apr 13 14:16:35 2024
     Host name              : node100                                 


                     .---------------------------------------.
                     | End of Wave Function Section (SIRIUS) |
                     `---------------------------------------'

 Trust radius increased due to good ratio.
 Updated trust radius   0.16123

 Center of mass dipole origin  :  -14.482798    0.356068   -0.001913

 Center of mass gauge origin   :  -14.482798    0.356068   -0.001913


                 .------------------------------------------------.
                 | Starting in Static Property Section (ABACUS) - |
                 `------------------------------------------------'


 
     Date and time (Linux)  : Sat Apr 13 14:16:35 2024
     Host name              : node100                                 

 Largest deviation from tra-rot symmetry is in gradient element  6:  3.62E-06


   ***************************************************************************
   ************************ FINAL RESULTS from ABACUS ************************
   ***************************************************************************


 
     Date and time (Linux)  : Sat Apr 13 14:16:36 2024
     Host name              : node100                                 
  Total CPU  time used in ABACUS:   0.92 seconds
  Total wall time used in ABACUS:   0.92 seconds


                   .-------------------------------------------.
                   | End of Static Property Section (ABACUS) - |
                   `-------------------------------------------'



            *********************************************************
            *** Output from geometry convergence control (MINEND) ***
            *********************************************************


 Energy converged       yes 
 Gradient converged     yes 
 Step converged         no  
 Conditions fullfilled   2
 Required conditions     2
 Totally sym. index      0
 Hessian index           0
 End of optimization    yes 


           :::::::::::::::::::::::::::::::::::::::::::::::::::::::::::
           ::::::::::::::: Optimization Control Center :::::::::::::::
           :::::::::::::::::::::::::::::::::::::::::::::::::::::::::::



                               Final geometry (au)
                               -------------------

 C1       -16.9087933167            0.5704379944           -0.0306925283
 C2       -14.7316533420           -0.4131877581            0.0253163694
 C3       -12.1566891235            0.8708295538           -0.0017693419
 H        -11.1392087649            0.1824105371           -1.6369830613
 H        -11.1673167885            0.3091853040            1.6978753114
 H        -12.3294542823            2.9003133747           -0.0803731160
 H        -18.7809467791            1.3378414641           -0.0763320828
 H        -14.8446559108           -2.4716723277            0.1029773469





                             Optimization information
                             ------------------------

 Iteration number               :      13
 End of optimization            :       T 
 Energy at this geometry is     :    -116.150448479889
 Energy change from last geom.  :      -0.000000026860
 Predicted change               :      -0.000000021345
 Ratio, actual/predicted change :       1.258331269433
 Norm of gradient               :       0.000059582093
 Norm of step                   :       0.000342653439
 Updated trust radius           :       0.161229586331
 Total effective Hessian index  :       0




          <<<<<<<<<<<<<<<<<<<<<<<<<<<<<<<<<<<<<<<<<<<<<<<<<<<<<<<<<<<<<<
          <<<<<<<<<<<<<<<<<<<<  End of Optimization <<<<<<<<<<<<<<<<<<<<
          <<<<<<<<<<<<<<<<<<<<<<<<<<<<<<<<<<<<<<<<<<<<<<<<<<<<<<<<<<<<<<



                              Final geometry (bohr)
                              ---------------------

 C1       -16.9087933167            0.5704379944           -0.0306925283
 C2       -14.7316533420           -0.4131877581            0.0253163694
 C3       -12.1566891235            0.8708295538           -0.0017693419
 H        -11.1392087649            0.1824105371           -1.6369830613
 H        -11.1673167885            0.3091853040            1.6978753114
 H        -12.3294542823            2.9003133747           -0.0803731160
 H        -18.7809467791            1.3378414641           -0.0763320828
 H        -14.8446559108           -2.4716723277            0.1029773469





                      Final geometry (xyz format; angstrom)
                      -------------------------------------

8

C1      -8.9477480853            0.3018627868           -0.0162417865
C2      -7.7956552260           -0.2186495454            0.0133968457
C3      -6.4330428429            0.4608231544           -0.0009362954
H       -5.8946154247            0.0965274992           -0.8662541305
H       -5.9094895503            0.1636138168            0.8984769215
H       -6.5244662278            1.5347797421           -0.0425316214
H       -9.9384490328            0.7079552144           -0.0403931987
H       -7.8554536102           -1.3079526684            0.0544932652



@ Iter     Energy        Change       GradNorm  Index   StepLen    TrustRad #Rej
@ ------------------------------------------------------------------------------
@   0     -116.146879     0.000000     0.077026    0    0.205160*   0.500000   0 
@   1     -116.149788    -0.002909     0.022425    0    0.161230*   0.500000   1 
@   2     -116.150029    -0.000241     0.012350    0    0.103431*   0.161230   0 
@   3     -116.150298    -0.000269     0.006783    0    0.036483*   0.161230   0 
@   4     -116.150345    -0.000047     0.002243    0    0.060202*   0.161230   0 
@   5     -116.150382    -0.000037     0.004266    0    0.052467*   0.161230   0 
@   6     -116.150410    -0.000027     0.004609    0    0.064040*   0.161230   0 
@   7     -116.150438    -0.000028     0.002729    0    0.017420*   0.161230   0 
@   8     -116.150446    -0.000008     0.000798    0    0.013759*   0.161230   0 
@   9     -116.150447    -0.000002     0.000343    0    0.013406*   0.161230   0 
@  10     -116.150448    -0.000001     0.000320    0    0.013795*   0.161230   0 
@  11     -116.150448    -0.000000     0.000219    0    0.006434*   0.161230   0 
@  12     -116.150448    -0.000000     0.000125    0    0.002281*   0.161230   0 
@  13     -116.150448    -0.000000     0.000060    0    0.000343*   0.161230   0 

@  *) Newton step taken.


   Interatomic separations (in Angstrom):
   --------------------------------------

            C1          C2          C3          H           H           H     
            ------      ------      ------      ------      ------      ------
 C1    :    0.000000
 C2    :    1.264567    0.000000
 C3    :    2.519771    1.522695    0.000000
 H     :    3.175894    2.118272    1.082308    0.000000
 H     :    3.175978    2.118281    1.082306    1.766068    0.000000
 H     :    2.719020    2.166463    1.078643    1.773077    1.773073    0.000000
 H     :    1.070973    2.335178    3.514328    4.172347    4.172565    3.512680
 H     :    1.946694    1.091717    2.270439    2.581710    2.581587    3.140393

            H           H     
            ------      ------
 H     :    0.000000
 H     :    2.900303    0.000000


  Max    interatomic separation is    4.1726 Angstrom (    7.8850 Bohr)
  between atoms    7 and    5, "H     " and "H     ".

  Min HX interatomic separation is    1.0710 Angstrom (    2.0238 Bohr)

  Min YX interatomic separation is    1.2646 Angstrom (    2.3897 Bohr)


  Bond distances (Angstrom):
  --------------------------

                  atom 1     atom 2       distance
                  ------     ------       --------
  bond distance:  C2         C1           1.264567
  bond distance:  C3         C2           1.522695
  bond distance:  H          C3           1.082308
  bond distance:  H          C3           1.082306
  bond distance:  H          C3           1.078643
  bond distance:  H          C1           1.070973
  bond distance:  H          C2           1.091717


  Bond angles (degrees):
  ----------------------

                  atom 1     atom 2     atom 3         angle
                  ------     ------     ------         -----
  bond angle:     C2         C1         H            177.976
  bond angle:     C1         C2         C3           129.152
  bond angle:     C1         C2         H            111.204
  bond angle:     C3         C2         H            119.644
  bond angle:     C2         C3         H            107.608
  bond angle:     C2         C3         H            107.609
  bond angle:     C2         C3         H            111.642
  bond angle:     H          C3         H            109.349
  bond angle:     H          C3         H            110.271
  bond angle:     H          C3         H            110.271



@ Geometry converged in 14 iterations!

@ Energy at final geometry is       :    -116.150448 a.u.
@ Energy change during optimization :      -0.003569 a.u.
@                                             -9.371 kJ/mol
 

 Center of mass dipole origin  :  -14.482798    0.356068   -0.001913

 Center of mass gauge origin   :  -14.482798    0.356068   -0.001913


                 .------------------------------------------------.
                 | Starting in Static Property Section (ABACUS) - |
                 `------------------------------------------------'


 
     Date and time (Linux)  : Sat Apr 13 14:16:36 2024
     Host name              : node100                                 


   ***************************************************************************
   ************************ FINAL RESULTS from ABACUS ************************
   ***************************************************************************


 
     Date and time (Linux)  : Sat Apr 13 14:16:36 2024
     Host name              : node100                                 


                             Molecular geometry (au)
                             -----------------------

 C1       -16.9087933167            0.5704379944           -0.0306925283
 C2       -14.7316533420           -0.4131877581            0.0253163694
 C3       -12.1566891235            0.8708295538           -0.0017693419
 H        -11.1392087649            0.1824105371           -1.6369830613
 H        -11.1673167885            0.3091853040            1.6978753114
 H        -12.3294542823            2.9003133747           -0.0803731160
 H        -18.7809467791            1.3378414641           -0.0763320828
 H        -14.8446559108           -2.4716723277            0.1029773469





                        Molecular wave function and energy
                        ----------------------------------

     Spatial symmetry   1 ( A   )
     Spin multiplicity  1
     2 * M_S            0
     State number       1
     Total charge       1

     Total energy       -116.1504484799 au (Hartrees)
                         -3160.61447975 eV
                           -304952.9555 kJ/mol
                            -72885.5056 kcal/mol


                   Scalar Breit-Pauli relativistic corrections
                   -------------------------------------------

     Darwin correction:                          0.1784760574 au
     Mass-velocity correction:                  -0.2223579260 au

     Total relativistic correction:             -0.0438818686 au ( 0.0378%)
     Non-relativistic + relativistic energy:  -116.1943303485 au



      (Note that these corrections are NOT included in the results below.)


                                  Dipole moment
                                  -------------

                 au               Debye          C m (/(10**-30)
              1.001652           2.545944           8.492356


                             Dipole moment components
                             ------------------------

                 au               Debye          C m (/(10**-30)

      x     -0.99640287        -2.53260331        -8.44785532
      y     -0.10229926        -0.26001877        -0.86732925
      z     -0.00471633        -0.01198771        -0.03998669


   Units:   1 a.u. =   2.54175 Debye 
            1 a.u. =   8.47835 (10**-30) C m (SI)




   Interatomic separations (in Angstrom):
   --------------------------------------

            C1          C2          C3          H           H           H     
            ------      ------      ------      ------      ------      ------
 C1    :    0.000000
 C2    :    1.264567    0.000000
 C3    :    2.519771    1.522695    0.000000
 H     :    3.175894    2.118272    1.082308    0.000000
 H     :    3.175978    2.118281    1.082306    1.766068    0.000000
 H     :    2.719020    2.166463    1.078643    1.773077    1.773073    0.000000
 H     :    1.070973    2.335178    3.514328    4.172347    4.172565    3.512680
 H     :    1.946694    1.091717    2.270439    2.581710    2.581587    3.140393

            H           H     
            ------      ------
 H     :    0.000000
 H     :    2.900303    0.000000


  Max    interatomic separation is    4.1726 Angstrom (    7.8850 Bohr)
  between atoms    7 and    5, "H     " and "H     ".

  Min HX interatomic separation is    1.0710 Angstrom (    2.0238 Bohr)

  Min YX interatomic separation is    1.2646 Angstrom (    2.3897 Bohr)


  Bond distances (Angstrom):
  --------------------------

                  atom 1     atom 2       distance
                  ------     ------       --------
  bond distance:  C2         C1           1.264567
  bond distance:  C3         C2           1.522695
  bond distance:  H          C3           1.082308
  bond distance:  H          C3           1.082306
  bond distance:  H          C3           1.078643
  bond distance:  H          C1           1.070973
  bond distance:  H          C2           1.091717


  Bond angles (degrees):
  ----------------------

                  atom 1     atom 2     atom 3         angle
                  ------     ------     ------         -----
  bond angle:     C2         C1         H            177.976
  bond angle:     C1         C2         C3           129.152
  bond angle:     C1         C2         H            111.204
  bond angle:     C3         C2         H            119.644
  bond angle:     C2         C3         H            107.608
  bond angle:     C2         C3         H            107.609
  bond angle:     C2         C3         H            111.642
  bond angle:     H          C3         H            109.349
  bond angle:     H          C3         H            110.271
  bond angle:     H          C3         H            110.271


  Total CPU  time used in ABACUS:   0.01 seconds
  Total wall time used in ABACUS:   0.01 seconds


                   .-------------------------------------------.
                   | End of Static Property Section (ABACUS) - |
                   `-------------------------------------------'

  Total CPU  time used in DALTON:  20.17 seconds
  Total wall time used in DALTON:  25.72 seconds

 
     Date and time (Linux)  : Sat Apr 13 14:16:36 2024
     Host name              : node100                                 
