

     ************************************************************************
     *************** Dalton - An Electronic Structure Program ***************
     ************************************************************************

    This is output from DALTON release Dalton2022.0-dev (2022)
         ( Web site: http://daltonprogram.org )

   ----------------------------------------------------------------------------

    NOTE:
     
    Dalton is an experimental code for the evaluation of molecular
    properties using (MC)SCF, DFT, CI, and CC wave functions.
    The authors accept no responsibility for the performance of
    the code or for the correctness of the results.
     
    The code (in whole or part) is provided under a licence and
    is not to be reproduced for further distribution without
    the written permission of the authors or their representatives.
     
    See the home page "http://daltonprogram.org" for further information.
     
    If results obtained with this code are published,
    the appropriate citations would be both of:
     
       K. Aidas, C. Angeli, K. L. Bak, V. Bakken,
       R. Bast, L. Boman, O. Christiansen, R. Cimiraglia,
       S. Coriani, P. Dahle, E. K. Dalskov, U. Ekstroem,
       T. Enevoldsen, J. J. Eriksen, P. Ettenhuber, B. Fernandez,
       L. Ferrighi, H. Fliegl, L. Frediani, K. Hald, A. Halkier,
       C. Haettig, H. Heiberg, T. Helgaker, A. C. Hennum,
       H. Hettema, E. Hjertenaes, S. Hoest, I.-M. Hoeyvik,
       M. F. Iozzi, B. Jansik, H. J. Aa. Jensen, D. Jonsson,
       P. Joergensen, J. Kauczor, S. Kirpekar,
       T. Kjaergaard, W. Klopper, S. Knecht, R. Kobayashi, H. Koch,
       J. Kongsted, A. Krapp, K. Kristensen, A. Ligabue,
       O. B. Lutnaes, J. I. Melo, K. V. Mikkelsen, R. H. Myhre,
       C. Neiss, C. B. Nielsen, P. Norman, J. Olsen,
       J. M. H. Olsen, A. Osted, M. J. Packer, F. Pawlowski,
       T. B. Pedersen, P. F. Provasi, S. Reine, Z. Rinkevicius,
       T. A. Ruden, K. Ruud, V. Rybkin, P. Salek, C. C. M. Samson,
       A. Sanchez de Meras, T. Saue, S. P. A. Sauer,
       B. Schimmelpfennig, K. Sneskov, A. H. Steindal,
       K. O. Sylvester-Hvid, P. R. Taylor, A. M. Teale,
       E. I. Tellgren, D. P. Tew, A. J. Thorvaldsen, L. Thoegersen,
       O. Vahtras, M. A. Watson, D. J. D. Wilson, M. Ziolkowski
       and H. Agren,
       "The Dalton quantum chemistry program system",
       WIREs Comput. Mol. Sci. 2014, 4:269-284 (doi: 10.1002/wcms.1172)
     
    and
     
       Dalton, a molecular electronic structure program,
       Release Dalton2022.0-dev (2022), see http://daltonprogram.org
   ----------------------------------------------------------------------------

    Authors in alphabetical order (Major contribution(s) in parenthesis):

  Kestutis Aidas,              Vilnius University,        Lithuania   (QM/MM)
  Celestino Angeli,            University of Ferrara,     Italy       (NEVPT2)
  Juan J. Aucar,               Northeast National UniversiArgentina   (LRESC, Relativistic Effects on EFG)
  Keld L. Bak,                 UNI-C,                     Denmark     (AOSOPPA, non-adiabatic coupling, magnetic properties)
  Vebjoern Bakken,             University of Oslo,        Norway      (DALTON; geometry optimizer, symmetry detection)
  Radovan Bast,                UiT The Arctic U. of NorwayNorway      (DALTON installation and execution frameworks)
  Pablo Baudin,                University of Valencia,    Spain       (Cholesky excitation energies)
  Linus Boman,                 NTNU,                      Norway      (Cholesky decomposition and subsystems)
  Bruno N. Cabral Tenorio,     Technical Univ. of Denmark,Denmark     (Lanczos-based CC methods)
  Ove Christiansen,            Aarhus University,         Denmark     (CC module)
  Renzo Cimiraglia,            University of Ferrara,     Italy       (NEVPT2)
  Sonia Coriani,               Technical Univ. of Denmark,Denmark     (CC and RESPONS modules)
  Janusz Cukras,               University of Warsaw,      Poland      (MChD in RESPONS)
  Paal Dahle,                  University of Oslo,        Norway      (Parallelization)
  Erik K. Dalskov,             UNI-C,                     Denmark     (SOPPA)
  Thomas Enevoldsen,           Univ. of Southern Denmark, Denmark     (SOPPA)
  Janus J. Eriksen,            Aarhus University,         Denmark     (Polarizable embedding, TDA)
  Rasmus Faber,                Technical Univ. of Denmark,Denmark     (Vib.avg. NMR w. SOPPA, parallel AO-SOPPA, CVS-CC and EOMCC)
  Tobias Fahleson,             KTH Stockholm,             Sweden      (Damped cubic response)
  Berta Fernandez,             U. of Santiago de CompostelSpain       (Doublet spin, ESR in RESPONS)
  Lara Ferrighi,               Aarhus University,         Denmark     (PCM Cubic response)
  Heike Fliegl,                University of Oslo,        Norway      (CCSD(R12))
  Luca Frediani,               UiT The Arctic U. of NorwayNorway      (PCM)
  Emmanuel Fromager,           Univ. Strasbourg,          France      (MC-srDFT)
  Bin Gao,                     UiT The Arctic U. of NorwayNorway      (Gen1Int library)
  Andre S. P. Gomes,           CNRS/Universite de Lille,  France      (Frozen density embedding)
  Christof Haettig,            Ruhr-University Bochum,    Germany     (CC module)
  Kasper Hald,                 Aarhus University,         Denmark     (CC module)
  Asger Halkier,               Aarhus University,         Denmark     (CC module)
  Frederik Beyer Hansen,       University of Copenhagen,  Denmark     (Parallel AO-SOPPA)
  Erik D. Hedegaard,           Univ. of Southern Denmark, Denmark     (Polarizable embedding, QM/MM, and MC-srDFT)
  Hanne Heiberg,               University of Oslo,        Norway      (Geometry analysis, selected one-electron integrals)
  Trygve Helgaker,             University of Oslo,        Norway      (DALTON; ABACUS, ERI, DFT modules, London, and much more)
  Alf Christian Hennum,        University of Oslo,        Norway      (Parity violation)
  Hinne Hettema,               University of Auckland,    New Zealand (Quadratic response in RESPONS; SIRIUS supersymmetry)
  Andreas E. Hillers-Bendtsen, University of Copenhagen,  Denmark     (MP3)
  Eirik Hjertenaes,            NTNU,                      Norway      (Cholesky decomposition)
  Nicolai Machholdt Hoeyer,    Aarhus University,         Denmark     (MP3)
  Pi A. B. Haase,              University of Copenhagen,  Denmark     (Triplet AO-SOPPA)
  Maria Francesca Iozzi,       University of Oslo,        Norway      (RPA)
  Christoph Jacob,             TU Braunschweig            Germany     (Frozen density embedding)
  Brano Jansik,                Technical Univ. of Ostrava Czech Rep.  (DFT cubic response)
  Hans Joergen Aa. Jensen,     Univ. of Southern Denmark, Denmark     (DALTON; SIRIUS, RESPONS, ABACUS, MC-srDFT, and much more)
  Dan Jonsson,                 UiT The Arctic U. of NorwayNorway      (Cubic response in RESPONS module)
  Poul Joergensen,             Aarhus University,         Denmark     (RESPONS, ABACUS, and CC modules)
  Maciej Kaminski,             University of Warsaw,      Poland      (CPPh in RESPONS)
  Joanna Kauczor,              Linkoeping University,     Sweden      (Complex polarization propagator (CPP) module)
  Sheela Kirpekar,             Univ. of Southern Denmark, Denmark     (Mass-velocity & Darwin integrals)
  Frederik Oersted Kjeldal,    Technical Univ. of Denmark,Denmark     (MP3)
  Erik Kjellgren,              Univ. of Southern Denmark, Denmark     (MC-srDFT)
  Wim Klopper,                 KIT Karlsruhe,             Germany     (R12 code in CC, SIRIUS, and ABACUS modules)
  Stefan Knecht,               ETH Zurich,                Switzerland (Parallel CI and MCSCF, MC-srDFT)
  Rika Kobayashi,              Australian National Univ., Australia   (DIIS in CC, London in MCSCF)
  Henrik Koch,                 NTNU,                      Norway      (CC module, Cholesky decomposition)
  Jacob Kongsted,              Univ. of Southern Denmark, Denmark     (Polarizable embedding, polarizable density embedding, QM/MM)
  Andrea Ligabue,              University of Modena,      Italy       (CTOCD, AOSOPPA)
  Nanna H. List,               Univ. of Southern Denmark, Denmark     (Polarizable embedding)
  Ola B. Lutnaes,              University of Oslo,        Norway      (DFT Hessian)
  Juan I. Melo,                University of Buenos Aires,Argentina   (LRESC, Relativistic Effects on NMR Shieldings)
  Kurt V. Mikkelsen,           University of Copenhagen,  Denmark     (MC-SCRF, QM/MM, and MP3)
  Rolf H. Myhre,               NTNU,                      Norway      (Subsystems and CC3)
  Christian Neiss,             Univ. Erlangen-Nuernberg,  Germany     (CCSD(R12))
  Christian B. Nielsen,        University of Copenhagen,  Denmark     (QM/MM)
  Patrick Norman,              KTH Stockholm,             Sweden      (Cubic response and complex frequency response in RESPONS)
  Jeppe Olsen,                 Aarhus University,         Denmark     (SIRIUS CI/density modules)
  Jogvan Magnus H. Olsen,      Aarhus University,         Denmark     (Polarizable embedding and polarizable density embedding)
  Anders Osted,                Copenhagen University,     Denmark     (QM/MM)
  Martin J. Packer,            University of Sheffield,   UK          (SOPPA)
  Filip Pawlowski,             Kazimierz Wielki UniversityPoland      (CC3)
  Morten N. Pedersen,          Univ. of Southern Denmark, Denmark     (Polarizable embedding)
  Thomas B. Pedersen,          University of Oslo,        Norway      (Cholesky decomposition)
  Patricio F. Provasi,         University of Northeastern,Argentina   (Analysis of coupling constants in localized orbitals)
  Peter Reinholdt,             Univ. of Southern Denmark, Denmark     (Polarizable embedding and polarizable density embedding)
  Zilvinas Rinkevicius,        KTH Stockholm,             Sweden      (open-shell DFT, ESR)
  Elias Rudberg,               KTH Stockholm,             Sweden      (DFT grid and basis info)
  Torgeir A. Ruden,            University of Oslo,        Norway      (Numerical derivatives in ABACUS)
  Kenneth Ruud,                UiT The Arctic U. of NorwayNorway      (DALTON; ABACUS magnetic properties and much more)
  Pawel Salek,                 KTH Stockholm,             Sweden      (DALTON; DFT code)
  Claire C. M. Samson,         University of Karlsruhe    Germany     (Boys localization, r12 integrals in ERI)
  Alfredo Sanchez de Meras,    University of Valencia,    Spain       (CC module, Cholesky decomposition)
  Trond Saue,                  Paul Sabatier University,  France      (direct Fock matrix construction)
  Stephan P. A. Sauer,         University of Copenhagen,  Denmark     (SOPPA(CCSD), SOPPA prop., AOSOPPA, vibrational g-factors)
  Bernd Schimmelpfennig,       Forschungszentrum KarlsruheGermany     (AMFI module)
  Anna K. Schnack-Petersen,    University of Copenhagen,  Denmark     (RPA(D) and HRPA(D) properties in AOSOPPA)
  Kristian Sneskov,            Aarhus University,         Denmark     (Polarizable embedding, QM/MM)
  Arnfinn H. Steindal,         UiT The Arctic U. of NorwayNorway      (parallel QM/MM, polarizable embedding)
  Casper Steinmann,            Aalborg University,        Denmark     (QFIT, polarizable embedding)
  K. O. Sylvester-Hvid,        University of Copenhagen,  Denmark     (MC-SCRF)
  Peter R. Taylor,             VLSCI/Univ. of Melbourne,  Australia   (Symmetry handling ABACUS, integral transformation)
  Andrew M. Teale,             University of Nottingham,  England     (DFT-AC, DFT-D)
  David P. Tew,                University of Bristol,     England     (CCSD(R12))
  Julien Toulouse,             Sorbonne Univ.,            France      (MC-srDFT)
  Olav Vahtras,                KTH Stockholm,             Sweden      (Triplet response, spin-orbit, ESR, TDDFT, open-shell DFT)
  Lucas Visscher,              Vrije Universiteit AmsterdaNetherlands (Frozen density embedding)
  David J. Wilson,             La Trobe University,       Australia   (DFT Hessian and DFT magnetizabilities)
  Luna Zamok,                  University of Copenhagen,  Denmark     (Block Lanczos RPA solver in SOPPA module)
  Hans Agren,                  KTH Stockholm,             Sweden      (SIRIUS module, RESPONS, MC-SCRF solvation)
 --------------------------------------------------------------------------------

     Date and time (Linux)  : Sat Apr 13 14:15:56 2024
     Host name              : node100                                 

 * Work memory size             :    64000000 =  488.28 megabytes.

 * Directories for basis set searches:
   1) /home1/s4925076/dalton-files/Sample_inputs_dalton2024_updated/ex2good/31G
   2) /home3/hb-qchav/Dalton/basis


Compilation information
-----------------------

 Who compiled             | p256146
 Host                     | login1
 System                   | Linux-4.18.0-425.13.1.el8_7.x86_64
 CMake generator          | Unix Makefiles
 Processor                | x86_64
 64-bit integers          | OFF
 MPI                      | ON
 Fortran compiler         | /cvmfs/hpc.rug.nl/versions/2023.01/rocky8/x86_64/a
                          | md/zen3/software/impi/2021.7.1-intel-compilers-202
                          | 2.2.1/mpi/2021.7.1/bin/mpiifort
 Fortran compiler version | unknown
 C compiler               | /cvmfs/hpc.rug.nl/versions/2023.01/rocky8/x86_64/a
                          | md/zen3/software/impi/2021.7.1-intel-compilers-202
                          | 2.2.1/mpi/2021.7.1/bin/mpiicc
 C compiler version       | unknown
 C++ compiler             | /cvmfs/hpc.rug.nl/versions/2023.01/rocky8/x86_64/a
                          | md/zen3/software/impi/2021.7.1-intel-compilers-202
                          | 2.2.1/mpi/2021.7.1/bin/mpiicpc
 C++ compiler version     | unknown
 BLAS                     | /cvmfs/hpc.rug.nl/versions/2023.01/rocky8/x86_64/a
                          | md/zen3/software/imkl/2022.2.1/mkl/2022.2.1/lib/in
                          | tel64/libmkl_intel_lp64.so;/cvmfs/hpc.rug.nl/versi
                          | ons/2023.01/rocky8/x86_64/amd/zen3/software/imkl/2
                          | 022.2.1/mkl/2022.2.1/lib/intel64/libmkl_sequential
                          | .so;/cvmfs/hpc.rug.nl/versions/2023.01/rocky8/x86_
                          | 64/amd/zen3/software/imkl/2022.2.1/mkl/2022.2.1/li
                          | b/intel64/libmkl_core.so;/usr/lib64/libpthread.so;
                          | /usr/lib64/libm.so
 LAPACK                   | /cvmfs/hpc.rug.nl/versions/2023.01/rocky8/x86_64/a
                          | md/zen3/software/imkl/2022.2.1/mkl/2022.2.1/lib/in
                          | tel64/libmkl_lapack95_lp64.a;/cvmfs/hpc.rug.nl/ver
                          | sions/2023.01/rocky8/x86_64/amd/zen3/software/imkl
                          | /2022.2.1/mkl/2022.2.1/lib/intel64/libmkl_intel_lp
                          | 64.so
 Static linking           | OFF
 Last Git revision        | 4d6ac05be54d7f9c5fe49e0ac32a42491a6c6955
 Git branch               | master
 Configuration time       | 2023-04-05 13:35:07.780405

 * Sequential calculation.


   Content of the .dal input file
 ----------------------------------

**DALTON INPUT
.RUN WAVEFUNCTION
.OPTIMIZE
**WAVE FUNCTION
.HF
**END OF DALTON INPUT


   Content of the .mol file
 ----------------------------

BASIS
6-31G
opt

Atomtypes=2 Nosymmetry Angstrom Charge=1
Charge=6.0 Atoms=3
C1         -8.95379        0.32003       -0.00444
C2         -7.79466       -0.27153       -0.00368
C3         -6.47763        0.43023       -0.00052
Charge=1.0 Atoms=5
H         -5.86961        0.08753       -0.84329
H         -5.93771        0.20865        0.92507
H         -6.59355        1.51583       -0.08081
H         -9.90306        0.80590       -0.00415
H         -7.76891       -1.35768        0.01183


       *******************************************************************
       *********** Output from DALTON general input processing ***********
       *******************************************************************

 --------------------------------------------------------------------------------
   Overall default print level:    0
   Print level for DALTON.STAT:    1

    HERMIT 1- and 2-electron integral sections will be executed
    "Old" integral transformation used (limited to max 255 basis functions)
    Wave function sections will be executed (SIRIUS module)
 --------------------------------------------------------------------------------


 Chosen parameters for *OPTIMI :
 -------------------------------

 Default 1st order method will be used:   BFGS update.
 Optimization will be performed in redundant internal coordinates (by default).
 Model Hessian will be used as initial Hessian.
 The model Hessian parameters of Roland Lindh will be used.
 
 
 Trust region method will be used to control step (default).
 
 Convergence threshold for gradient set to :      1.00D-04
 Convergence threshold for energy set to   :      1.00D-06
 Convergence threshold for step set to     :      1.00D-04
 Number of convergence criteria set to     :   2


              >>>>>>>>>>>>>>>>>>>>>>>>>>>>>>>>>>>>>>>>>>>>>>>>>>>>>
              >>>>>>>>>> 1st Order Geometry Optimization >>>>>>>>>>
              >>>>>>>>>>>>>>>>>>>>>>>>>>>>>>>>>>>>>>>>>>>>>>>>>>>>>


 Reading .mol file to determine number of atoms for parallel runs.


   ****************************************************************************
   *************** Output of molecule and basis set information ***************
   ****************************************************************************


    The two title cards from your ".mol" input:
    --------------------------------------------------------------------------------
 1: opt
 2: 
    --------------------------------------------------------------------------------

  Coordinates are entered in Angstrom and converted to atomic units.
          - Conversion factor : 1 bohr = 0.52917721 A

  Atomic type no.    1
  --------------------
  Nuclear charge:   6.00000
  Number of symmetry independent centers:    3
  Number of basis sets to read;    2
  Basis set file used for this atomic type with Z =   6 :
     "/home3/hb-qchav/Dalton/basis/6-31G"

  Info about the basis set file: your basis has no documentation.
  Basis set: 6-31G                                                                           

  Atomic type no.    2
  --------------------
  Nuclear charge:   1.00000
  Number of symmetry independent centers:    5
  Number of basis sets to read;    2
  Basis set file used for this atomic type with Z =   1 :
     "/home3/hb-qchav/Dalton/basis/6-31G"

  Info about the basis set file: your basis has no documentation.
  Basis set: 6-31G                                                                           


                         SYMGRP: Point group information
                         -------------------------------

@    Point group: C1 


                                 Isotopic Masses
                                 ---------------

                           C1         12.000000
                           C2         12.000000
                           C3         12.000000
                           H           1.007825
                           H           1.007825
                           H           1.007825
                           H           1.007825
                           H           1.007825

                       Total mass:    41.039125 amu
                       Natural abundance:  96.664 %

 Center-of-mass coordinates (a.u.):  -14.507921    0.323012   -0.004373
 Center-of-mass coordinates (Angs):   -7.677261    0.170931   -0.002314


  Atoms and basis sets
  --------------------

  Number of atom types :    2
  Total number of atoms:    8

  Basis set used is "6-31G" from the basis set library.

  label    atoms   charge   prim   cont     basis
  ----------------------------------------------------------------------
  C3          3    6.0000    22     9      [10s4p|3s2p]                                       
  H           5    1.0000     4     2      [4s|2s]                                            
  ----------------------------------------------------------------------
  total:      8   23.0000    86    37
  ----------------------------------------------------------------------

  Threshold for neglecting AO integrals:  1.00D-12


  Cartesian Coordinates (a.u.)
  ----------------------------

  Total number of coordinates:   24
  C1      :     1  x -16.9202108807    2  y   0.6047690518    3  z  -0.0083903840
  C2      :     4  x -14.7297726374    5  y  -0.5131173347    6  z  -0.0069541921
  C3      :     7  x -12.2409466390    8  y   0.8130168708    9  z  -0.0009826576
  H       :    10  x -11.0919553605   11  y   0.1654077277   12  z  -1.5935871439
  H       :    13  x -11.2206457096   14  y   0.3942913560   15  z   1.7481289464
  H       :    16  x -12.4600036915   17  y   2.8645035520   18  z  -0.1527087682
  H       :    19  x -18.7140711994   20  y   1.5229302841   21  z  -0.0078423634
  H       :    22  x -14.6811121897   23  y  -2.5656433654   24  z   0.0223554601


   Interatomic separations (in Angstrom):
   --------------------------------------

            C1          C2          C3          H           H           H     
            ------      ------      ------      ------      ------      ------
 C1    :    0.000000
 C2    :    1.301356    0.000000
 C3    :    2.478614    1.492329    0.000000
 H     :    3.204667    2.130654    1.094254    0.000000
 H     :    3.158027    2.131059    1.094225    1.773811    0.000000
 H     :    2.646980    2.154825    1.094720    1.773557    1.775004    0.000000
 H     :    1.066388    2.367743    3.445970    4.181977    4.116328    3.385666
 H     :    2.054000    1.086566    2.205488    2.535193    2.576954    3.105980

            H           H     
            ------      ------
 H     :    0.000000
 H     :    3.039067    0.000000


  Max    interatomic separation is    4.1820 Angstrom (    7.9028 Bohr)
  between atoms    7 and    4, "H     " and "H     ".

  Min HX interatomic separation is    1.0664 Angstrom (    2.0152 Bohr)

  Min YX interatomic separation is    1.3014 Angstrom (    2.4592 Bohr)


  Bond distances (Angstrom):
  --------------------------

                  atom 1     atom 2       distance
                  ------     ------       --------
  bond distance:  C2         C1           1.301356
  bond distance:  C3         C2           1.492329
  bond distance:  H          C3           1.094254
  bond distance:  H          C3           1.094225
  bond distance:  H          C3           1.094720
  bond distance:  H          C1           1.066388
  bond distance:  H          C2           1.086566


  Bond angles (degrees):
  ----------------------

                  atom 1     atom 2     atom 3         angle
                  ------     ------     ------         -----
  bond angle:     C2         C1         H            179.917
  bond angle:     C1         C2         C3           124.912
  bond angle:     C1         C2         H            118.393
  bond angle:     C3         C2         H            116.687
  bond angle:     C2         C3         H            109.967
  bond angle:     C2         C3         H            110.001
  bond angle:     C2         C3         H            111.884
  bond angle:     H          C3         H            108.294
  bond angle:     H          C3         H            108.235
  bond angle:     H          C3         H            108.367




 Principal moments of inertia (u*A**2) and principal axes
 --------------------------------------------------------

   IA       9.488092          0.998640    0.052122    0.001464
   IB      51.216391         -0.052118    0.998637   -0.002862
   IC      57.532641         -0.001611    0.002782    0.999995


 Rotational constants
 --------------------

               A                   B                   C

          53264.5544           9867.5248           8784.2136 MHz
            1.776714            0.329145            0.293010 cm-1


@  Nuclear repulsion energy :   64.655169304646 Hartree


                     .---------------------------------------.
                     | Starting in Integral Section (HERMIT) |
                     `---------------------------------------'



 ***************************************************************************************
 ****************** Output from **INTEGRALS input processing (HERMIT) ******************
 ***************************************************************************************


 - Using defaults, no **INTEGRALS input found

 Default print level:        1

 Calculation of one- and two-electron Hamiltonian integrals.

 Center of mass  (bohr):    -14.507920502186      0.323012436646     -0.004372723960
 Operator center (bohr):      0.000000000000      0.000000000000      0.000000000000
 Gauge origin    (bohr):      0.000000000000      0.000000000000      0.000000000000
 Dipole origin   (bohr):      0.000000000000      0.000000000000      0.000000000000

Calculation of 2-electron integrals are postponed until they are needed.


     ************************************************************************
     ************************** Output from HERINT **************************
     ************************************************************************



                      Nuclear contribution to dipole moments
                      --------------------------------------

                 au               Debye          C m (/(10**-30)

      x   -331.51336909      -842.62288185     -2810.68739178
      y      7.80950108        19.84977054        66.21170750
      z     -0.08161727        -0.20745040        -0.69198004


  Total CPU  time used in HERMIT:   0.02 seconds
  Total wall time used in HERMIT:   0.09 seconds


                        .----------------------------------.
                        | End of Integral Section (HERMIT) |
                        `----------------------------------'



                   .--------------------------------------------.
                   | Starting in Wave Function Section (SIRIUS) |
                   `--------------------------------------------'


 *** Output from Huckel module :

     Using EWMO model:          T
     Using EHT  model:          F
     Number of Huckel orbitals each symmetry:   20

 EWMO - Energy Weighted Maximum Overlap - is a Huckel type method,
        which normally is better than Extended Huckel Theory.
 Reference: Linderberg and Ohrn, Propagators in Quantum Chemistry (Wiley, 1973)

 Huckel EWMO eigenvalues for symmetry :  1
          -11.357162     -11.350287     -11.344875      -1.646376      -1.217159
           -0.971487      -0.753397      -0.745015      -0.568218      -0.502543
           -0.484597      -0.333271      -0.239401      -0.141336      -0.130224
           -0.122375      -0.117830      -0.116186      -0.103862      -0.067998

 **********************************************************************
 *SIRIUS* a direct, restricted step, second order MCSCF program       *
 **********************************************************************

 
     Date and time (Linux)  : Sat Apr 13 14:15:57 2024
     Host name              : node100                                 

 Title lines from ".mol" input file:
     opt
     

 Print level on unit LUPRI =   2 is   0
 Print level on unit LUW4  =   2 is   5

@    Restricted, closed shell Hartree-Fock calculation.

@    Time-dependent Hartree-Fock calculation (random phase approximation).

 Initial molecular orbitals are obtained according to
 ".MOSTART EWMO  " input option

     Wave function specification
     ============================
@    Wave function type        --- HF ---
@    Number of closed shell electrons          22
@    Number of electrons in active shells       0
@    Total charge of the molecule               1

@    Spin multiplicity and 2 M_S                1         0
@    Total number of symmetries                 1 (point group: C1 )
@    Reference state symmetry                   1 (irrep name : A  )

     Orbital specifications
     ======================
@    Abelian symmetry species          All |    1
@                                          |  A  
                                       --- |  ---
@    Occupied SCF orbitals              11 |   11
@    Secondary orbitals                 26 |   26
@    Total number of orbitals           37 |   37
@    Number of basis functions          37 |   37

     Optimization information
     ========================
@    Number of configurations                 1
@    Number of orbital rotations            286
     ------------------------------------------
@    Total number of variables              287

     Maximum number of Fock   iterations      0
     Maximum number of DIIS   iterations     60
     Maximum number of QC-SCF iterations     60
     Threshold for SCF convergence     1.00D-05


 ***********************************************
 ***** DIIS acceleration of SCF iterations *****
 ***********************************************

 C1-DIIS algorithm; max error vectors =    8

 Iter      Total energy        Error norm    Delta(E)  DIIS dim.
 -----------------------------------------------------------------------------

Calculating AOSUPINT

---> (Re)generating AOTWOINT


     ************************************************************************
     ************************** Output from HERINT **************************
     ************************************************************************


 Threshold for neglecting two-electron integrals:  1.00D-12
 HERMIT - Number of two-electron integrals written:      243361 ( 98.3% )
 HERMIT - Megabytes written:                              2.789

  Total CPU  time used in TWOINT:   0.04 seconds
  Total wall time used in TWOINT:   0.07 seconds
     (Precalculated AO two-electron integrals are transformed to P-supermatrix elements.
      Threshold for discarding integrals :  1.00D-12 )

@  1    -115.429180537        2.81956D+00   -1.15D+02    1
      Virial theorem: -V/T =      2.031162
@    MULPOP   C1      0.46; C2      0.54; C3      0.57; H      -0.12; H      -0.12; H      -0.13; H      -0.14; H      -0.07; 
   1  Level shift: doubly occupied orbital energies shifted by -2.00D-01
 -----------------------------------------------------------------------------
@  2    -116.035468095        8.57140D-01   -6.06D-01    2
      Virial theorem: -V/T =      1.996156
@    MULPOP   C1      0.51; C2     -0.41; C3     -0.49; H       0.26; H       0.26; H       0.24; H       0.27; H       0.35; 
   2  Level shift: doubly occupied orbital energies shifted by -1.00D-01
 -----------------------------------------------------------------------------
@  3    -116.086020027        2.56242D-01   -5.06D-02    3
      Virial theorem: -V/T =      2.000879
@    MULPOP   C1      0.15; C2     -0.19; C3     -0.45; H       0.26; H       0.26; H       0.23; H       0.39; H       0.36; 
   3  Level shift: doubly occupied orbital energies shifted by -5.00D-02
 -----------------------------------------------------------------------------
@  4    -116.093797882        1.01030D-01   -7.78D-03    4
      Virial theorem: -V/T =      2.000580
@    MULPOP   C1      0.21; C2     -0.27; C3     -0.51; H       0.27; H       0.27; H       0.24; H       0.42; H       0.37; 
   4  Level shift: doubly occupied orbital energies shifted by -2.50D-02
 -----------------------------------------------------------------------------
@  5    -116.095764000        4.15101D-02   -1.97D-03    5
      Virial theorem: -V/T =      2.000082
@    MULPOP   C1      0.15; C2     -0.24; C3     -0.52; H       0.28; H       0.28; H       0.24; H       0.44; H       0.37; 
   5  Level shift: doubly occupied orbital energies shifted by -1.25D-02
 -----------------------------------------------------------------------------
@  6    -116.096304037        1.27835D-02   -5.40D-04    6
      Virial theorem: -V/T =      1.999925
@    MULPOP   C1      0.15; C2     -0.22; C3     -0.52; H       0.27; H       0.28; H       0.24; H       0.44; H       0.37; 
 -----------------------------------------------------------------------------
@  7    -116.096349340        5.03766D-03   -4.53D-05    7
      Virial theorem: -V/T =      1.999909
@    MULPOP   C1      0.14; C2     -0.22; C3     -0.52; H       0.27; H       0.28; H       0.24; H       0.44; H       0.37; 
 -----------------------------------------------------------------------------
@  8    -116.096354261        8.06442D-04   -4.92D-06    8
      Virial theorem: -V/T =      1.999911
@    MULPOP   C1      0.15; C2     -0.22; C3     -0.52; H       0.27; H       0.28; H       0.24; H       0.44; H       0.36; 
 -----------------------------------------------------------------------------
@  9    -116.096354367        1.49646D-04   -1.07D-07    8
      Virial theorem: -V/T =      1.999909
@    MULPOP   C1      0.15; C2     -0.22; C3     -0.52; H       0.27; H       0.28; H       0.24; H       0.44; H       0.37; 
 -----------------------------------------------------------------------------
@ 10    -116.096354372        5.18906D-05   -4.71D-09    8
      Virial theorem: -V/T =      1.999910
@    MULPOP   C1      0.15; C2     -0.22; C3     -0.52; H       0.27; H       0.28; H       0.24; H       0.44; H       0.37; 
 -----------------------------------------------------------------------------
@ 11    -116.096354374        3.57855D-05   -1.42D-09    8
      Virial theorem: -V/T =      1.999910
@    MULPOP   C1      0.15; C2     -0.22; C3     -0.52; H       0.27; H       0.28; H       0.24; H       0.44; H       0.37; 
 -----------------------------------------------------------------------------
@ 12    -116.096354375        1.46010D-05   -1.27D-09    8
      Virial theorem: -V/T =      1.999910
@    MULPOP   C1      0.15; C2     -0.22; C3     -0.52; H       0.27; H       0.28; H       0.24; H       0.44; H       0.37; 
 -----------------------------------------------------------------------------
@ 13    -116.096354375        4.36424D-06   -1.98D-10    8

@ *** DIIS converged in  13 iterations !
@     Converged SCF energy, gradient:   -116.096354375077    4.36D-06
    - total time used in SIRFCK :              0.00 seconds


 *** SCF orbital energy analysis ***

 Only the 20 lowest virtual orbital energies printed in each symmetry.

 Number of electrons        :   22
 Closed shell orbitals      :   11

 Sym       Hartree-Fock orbital energies

1 A     -11.61675063   -11.55138253   -11.45864677    -1.36761862    -1.18563367
         -1.04435536    -0.93526259    -0.82043438    -0.80152431    -0.75331934
         -0.67055008    -0.20828215    -0.09463226     0.02293739     0.06617172
          0.08501701     0.12367338     0.12834975     0.19626270     0.32688554
          0.42130590     0.47713306     0.55153180     0.60529945     0.62430636
          0.63459250     0.65122737     0.74157703     0.78383739     0.80435276
          0.95553599

    E(LUMO) :    -0.20828215 au (symmetry 1)
  - E(HOMO) :    -0.67055008 au (symmetry 1)
  ------------------------------------------
    gap     :     0.46226793 au

 --- Writing SIRIFC interface file

--------------------------------------------------------------------------------


     .--------------------------------------------------.
     | HF-SCF KT IPs [a.u. & eV] from Koopmans' theorem |
     `--------------------------------------------------'


     HF-SCF KT symmetry 1 ( A  ) in point group C1  -- 11 principal poles with pole strength 1

   ============  ============  ============  ============  ============
      11.616751     11.551383     11.458647      1.367619      1.185634
     316.107865    314.329108    311.805640     37.214796     32.262733
   ============  ============  ============  ============  ============

   ============  ============  ============  ============  ============
       1.044355      0.935263      0.820434      0.801524      0.753319
      28.418355     25.449790     22.325155     21.810586     20.498862
   ============  ============  ============  ============  ============

   ============
       0.670550
      18.246596
   ============

@ Summary of HF-SCF KT ionization potentials [eV]:

@ Symmetry 1 (A  ) :   316.108     314.329     311.806      37.215      32.263
@                       28.418      25.450      22.325      21.811      20.499
@                       18.247

  === End of HF-SCF KT output ===
--------------------------------------------------------------------------------


 CPU and wall time for SCF :       0.079       0.576


                       .-----------------------------------.
                       | --- Final results from SIRIUS --- |
                       `-----------------------------------'


@    Spin multiplicity:           1
@    Spatial symmetry:            1 ( irrep  A   in C1  )
@    Total charge of molecule:    1

@    Final HF energy:            -116.096354375077                 
@    Nuclear repulsion:            64.655169304646
@    Electronic energy:          -180.751523679723

@    Final gradient norm:           0.000004364244

 
     Date and time (Linux)  : Sat Apr 13 14:15:57 2024
     Host name              : node100                                 

File label for MO orbitals:  13Apr24   FOCKDIIS

 (Only coefficients > 0.0100 are printed.)

 Molecular orbitals for symmetry species 1  (A  )
 ------------------------------------------------

    Orbital         1        2        3        4        5        6        7
   1 C1  :1s    -0.9961   0.0160   0.0000   0.1343  -0.1136  -0.0989  -0.0172
   2 C1  :1s    -0.0231   0.0014  -0.0004  -0.2905   0.2511   0.2257   0.0391
   3 C1  :1s     0.0146  -0.0090   0.0020  -0.1472   0.1598   0.1666   0.0282
   4 C1  :2px   -0.0005   0.0004  -0.0002  -0.1395   0.0179  -0.2907   0.3033
   5 C1  :2py    0.0003  -0.0003   0.0001   0.0666  -0.0305   0.1755  -0.0896
   7 C1  :2px    0.0044  -0.0051   0.0017   0.0130  -0.0423  -0.1641   0.1207
   8 C1  :2py   -0.0023   0.0023  -0.0011  -0.0088   0.0158   0.0878  -0.0515
  10 C2  :1s    -0.0152  -0.9961  -0.0036   0.1681   0.0021   0.0906   0.0378
  11 C2  :1s     0.0006  -0.0252  -0.0005  -0.3442  -0.0071  -0.1890  -0.0806
  12 C2  :1s    -0.0077   0.0206   0.0026  -0.2390   0.0586  -0.0921  -0.1958
  13 C2  :2px   -0.0002   0.0009  -0.0002   0.0812  -0.2374   0.0405  -0.1977
  14 C2  :2py    0.0001  -0.0005  -0.0002  -0.0674  -0.0045   0.1048   0.3497
  16 C2  :2px    0.0044  -0.0028   0.0036   0.0177  -0.0481  -0.0339  -0.0133
  17 C2  :2py   -0.0020   0.0032   0.0010  -0.0031   0.0063   0.0812   0.1579
  19 C3  :1s     0.0000  -0.0034   0.9962   0.0777   0.1676  -0.0603  -0.0184
  20 C3  :1s     0.0003   0.0003   0.0260  -0.1456  -0.3189   0.1168   0.0360
  21 C3  :1s    -0.0007  -0.0035  -0.0189  -0.1315  -0.3511   0.1388   0.0306
  22 C3  :2px   -0.0001  -0.0001  -0.0008   0.0614   0.0013   0.0596  -0.0062
  23 C3  :2py   -0.0000   0.0000  -0.0004   0.0241   0.0171   0.0546   0.1564
  25 C3  :2px    0.0005   0.0026   0.0013   0.0077   0.0129   0.0172  -0.0014
  26 C3  :2py    0.0009  -0.0003   0.0010   0.0028   0.0078   0.0002   0.0620
  28 H   :1s     0.0000   0.0001   0.0001  -0.0333  -0.1108   0.0528  -0.0104
  29 H   :1s    -0.0000  -0.0006   0.0031   0.0049  -0.0164   0.0145  -0.0059
  30 H   :1s     0.0001   0.0001   0.0001  -0.0338  -0.1103   0.0537  -0.0027
  31 H   :1s     0.0000  -0.0007   0.0031   0.0057  -0.0157   0.0148  -0.0025
  32 H   :1s     0.0001   0.0002   0.0001  -0.0364  -0.1026   0.0707   0.0976
  33 H   :1s    -0.0007   0.0006   0.0029   0.0010  -0.0142   0.0308   0.0453
  34 H   :1s     0.0005   0.0000   0.0001  -0.0550   0.0913   0.2536  -0.1368
  35 H   :1s    -0.0005  -0.0013   0.0007   0.0129  -0.0020   0.0474  -0.0464
  36 H   :1s     0.0002   0.0001  -0.0001  -0.0826  -0.0052  -0.1267  -0.2304
  37 H   :1s    -0.0006  -0.0019   0.0003  -0.0032  -0.0034  -0.0272  -0.0833

    Orbital         8        9       10       11       12       13       14
   1 C1  :1s     0.0206  -0.0000  -0.0230   0.0003   0.0006  -0.0008   0.1060
   2 C1  :1s    -0.0490   0.0011   0.0658  -0.0002   0.0034   0.0018  -0.1309
   3 C1  :1s    -0.0425  -0.0080   0.0498  -0.0073  -0.0609  -0.0007  -1.3715
   4 C1  :2px   -0.0515   0.0012   0.1034  -0.0029  -0.2276  -0.0010   0.1657
   5 C1  :2py    0.1503   0.0014  -0.0170  -0.0033  -0.4420  -0.0048  -0.0647
   6 C1  :2pz   -0.0005   0.1697  -0.0020  -0.4656   0.0051  -0.3644  -0.0028
   7 C1  :2px   -0.0313  -0.0073   0.0226  -0.0071  -0.3212  -0.0087   0.8381
   8 C1  :2py    0.0426   0.0038  -0.0165  -0.0001  -0.5304  -0.0038  -0.3438
   9 C1  :2pz   -0.0002   0.0886  -0.0002  -0.3091   0.0056  -0.6267  -0.0082
  10 C2  :1s    -0.0453   0.0003   0.0062  -0.0006  -0.0028   0.0013  -0.0726
  11 C2  :1s     0.0950  -0.0020  -0.0146   0.0007   0.0087  -0.0023   0.1979
  12 C2  :1s     0.2015   0.0107  -0.0174   0.0087   0.0469  -0.0062   0.3688
  13 C2  :2px    0.3349  -0.0002  -0.0127   0.0007   0.0307   0.0002  -0.1406
  14 C2  :2py    0.2377   0.0033   0.1662  -0.0029   0.0433   0.0041   0.0203
  15 C2  :2pz   -0.0018   0.1982  -0.0031  -0.2874  -0.0007   0.4388   0.0040
  16 C2  :2px    0.1872  -0.0046   0.0329  -0.0050  -0.0556  -0.0054   0.1413
  17 C2  :2py    0.1901   0.0049   0.1056   0.0014   0.0355   0.0153  -0.2823
  18 C2  :2pz   -0.0014   0.1061  -0.0023  -0.1964   0.0011   0.7618   0.0163
  19 C3  :1s     0.0266   0.0000  -0.0018  -0.0001  -0.0393  -0.0006  -0.0009
  20 C3  :1s    -0.0379  -0.0001   0.0091   0.0000   0.0700   0.0013   0.0075
  21 C3  :1s    -0.2128  -0.0009  -0.0316   0.0013   0.3054   0.0025   0.0940
  22 C3  :2px   -0.3616  -0.0029   0.1596  -0.0021  -0.1551  -0.0014   0.0468
  23 C3  :2py   -0.1050   0.0013  -0.4024   0.0020  -0.0411  -0.0034   0.0510
  24 C3  :2pz   -0.0026   0.4104   0.0023   0.2063  -0.0024  -0.0298  -0.0027
  25 C3  :2px   -0.0950  -0.0010   0.1222  -0.0005  -0.1255   0.0057   0.1649
  26 C3  :2py   -0.0129   0.0006  -0.2258  -0.0020  -0.0351  -0.0176   0.2846
  27 C3  :2pz   -0.0001   0.2216   0.0011   0.1453  -0.0093  -0.0506  -0.0200
  28 H   :1s    -0.1241  -0.1943   0.1424  -0.1191  -0.0262   0.0827   0.0094
  29 H   :1s    -0.0711  -0.1092   0.0866  -0.0895  -0.0911   0.1599  -0.0494
  30 H   :1s    -0.1202   0.2111   0.1093   0.1284  -0.0221  -0.0908   0.0078
  31 H   :1s    -0.0701   0.1192   0.0663   0.0943  -0.0778  -0.1938  -0.0407
  32 H   :1s    -0.0641  -0.0176  -0.2748  -0.0094   0.0090   0.0082  -0.0151
  33 H   :1s    -0.0337  -0.0104  -0.1842  -0.0044  -0.0830   0.0308  -0.3144
  34 H   :1s     0.0387  -0.0002  -0.0247   0.0002   0.0014  -0.0015   0.1684
  35 H   :1s     0.0191  -0.0034  -0.0221  -0.0019  -0.0135  -0.0072   1.9533
  36 H   :1s    -0.0812  -0.0012  -0.1304   0.0001  -0.1361   0.0011  -0.0072
  37 H   :1s    -0.0159  -0.0011  -0.0845   0.0008  -0.2541   0.0079  -0.6095

    Orbital        15       16       17       18       19       20       21
   1 C1  :1s    -0.0308  -0.0037   0.0064  -0.0003  -0.0023   0.0978  -0.0073
   2 C1  :1s     0.1085   0.0637   0.0182   0.0021   0.1232   0.0014  -0.8914
   3 C1  :1s     0.4676  -0.3476  -0.2207  -0.0632   0.0467  -4.3397   0.4913
   4 C1  :2px   -0.0539   0.0255  -0.1453   0.0196  -0.0040  -0.2193  -0.0518
   5 C1  :2py    0.0461   0.1053   0.1070   0.0001   0.0566   0.1259   0.1440
   6 C1  :2pz    0.0032  -0.0028  -0.0117   0.0125   0.0019   0.0127  -0.0086
   7 C1  :2px   -0.1578  -0.3362  -0.7260   0.0128  -0.5686  -3.6277   0.2374
   8 C1  :2py    0.4735   0.1833   0.4239  -0.0303  -0.5233   1.9211  -0.2394
   9 C1  :2pz   -0.0078   0.0031  -0.0337  -0.1774   0.0043  -0.0047   0.0095
  10 C2  :1s    -0.0690   0.0243  -0.0546   0.0073  -0.0816  -0.0866  -0.0209
  11 C2  :1s     0.1094   0.0087  -0.0135  -0.0100   0.1169   0.0605  -0.3706
  12 C2  :1s     1.4061  -0.1944   1.6980  -0.1408   2.0066   4.3820   0.4489
  13 C2  :2px    0.0580  -0.0221   0.0231  -0.0023   0.2297  -0.1458   0.5451
  14 C2  :2py   -0.2668   0.0765  -0.0663   0.0215   0.2483   0.1591  -0.1294
  15 C2  :2pz    0.0029  -0.0013   0.0126   0.0231  -0.0024  -0.0020   0.0008
  16 C2  :2px    0.0563  -0.4691  -0.1606  -0.0382   1.6742  -3.7805  -0.6645
  17 C2  :2py   -1.0190   0.3571  -0.2183   0.1351   1.5474   1.8037   0.2359
  18 C2  :2pz    0.0224  -0.0139   0.0828   0.4557  -0.0115  -0.0146  -0.0029
  19 C3  :1s    -0.0280  -0.1314   0.0334  -0.0051   0.0852   0.0051   0.0132
  20 C3  :1s     0.0169   0.1129  -0.0285   0.0061   0.0212  -0.0063  -0.0912
  21 C3  :1s     0.6700   2.4116  -0.5637   0.0792  -2.2691   0.4317   0.3051
  22 C3  :2px    0.1338   0.0748  -0.0951   0.0206   0.1599  -0.0213   0.1695
  23 C3  :2py   -0.0604   0.1139   0.2606  -0.0361   0.0898  -0.2158  -0.1808
  24 C3  :2pz   -0.0026   0.0052  -0.0507  -0.3254   0.0090   0.0260   0.0005
  25 C3  :2px    0.4045   0.3367  -0.4278   0.1136   2.0039   0.0853   0.1628
  26 C3  :2py   -0.0490   0.3423   1.2704  -0.2100   0.6731  -1.1278   0.3248
  27 C3  :2pz   -0.0242   0.0313  -0.2405  -1.5594   0.0381   0.0259   0.0055
  28 H   :1s    -0.0302   0.0026   0.0409  -0.0776  -0.0725   0.0478   0.0486
  29 H   :1s    -0.6726  -0.8975   0.8467  -1.7179  -0.2065  -0.2142  -0.1048
  30 H   :1s    -0.0212  -0.0037   0.0480   0.0704  -0.0662   0.0473   0.0194
  31 H   :1s    -0.5627  -0.9995   1.1123   1.5275  -0.2406  -0.2183  -0.1034
  32 H   :1s     0.0412  -0.0404  -0.0920   0.0071   0.0096  -0.1023  -0.2276
  33 H   :1s     0.1539  -1.4239  -1.4790   0.0844   0.2117   1.0999  -0.0580
  34 H   :1s    -0.0090   0.0154   0.0419  -0.0030   0.0558   0.2830  -0.4411
  35 H   :1s    -0.6940  -0.2697  -0.8286   0.0637  -0.3156  -2.0766   0.4954
  36 H   :1s    -0.0377   0.0786   0.0182   0.0007  -0.0001   0.0157  -0.0233
  37 H   :1s    -1.8635   0.6791  -0.7382   0.1944   0.8042   0.6125  -0.0907

  Total CPU  time used in SIRIUS :   0.09 seconds
  Total wall time used in SIRIUS :   0.76 seconds

 
     Date and time (Linux)  : Sat Apr 13 14:15:57 2024
     Host name              : node100                                 


                     .---------------------------------------.
                     | End of Wave Function Section (SIRIUS) |
                     `---------------------------------------'


 Center of mass dipole origin  :  -14.507921    0.323012   -0.004373

 Center of mass gauge origin   :  -14.507921    0.323012   -0.004373


                 .------------------------------------------------.
                 | Starting in Static Property Section (ABACUS) - |
                 `------------------------------------------------'


 
     Date and time (Linux)  : Sat Apr 13 14:15:57 2024
     Host name              : node100                                 
  Total CPU  time used in TWOINT:   0.11 seconds
  Total wall time used in TWOINT:   0.11 seconds

 Largest deviation from tra-rot symmetry is in gradient element  2:  6.36E-07


   ***************************************************************************
   ************************ FINAL RESULTS from ABACUS ************************
   ***************************************************************************


 
     Date and time (Linux)  : Sat Apr 13 14:15:57 2024
     Host name              : node100                                 


                             Molecular geometry (au)
                             -----------------------

 C1       -16.9202108807            0.6047690518           -0.0083903840
 C2       -14.7297726374           -0.5131173347           -0.0069541921
 C3       -12.2409466390            0.8130168708           -0.0009826576
 H        -11.0919553605            0.1654077277           -1.5935871439
 H        -11.2206457096            0.3942913560            1.7481289464
 H        -12.4600036915            2.8645035520           -0.1527087682
 H        -18.7140711994            1.5229302841           -0.0078423634
 H        -14.6811121897           -2.5656433654            0.0223554601





                        Molecular wave function and energy
                        ----------------------------------

     Spatial symmetry   1 ( A   )
     Spin multiplicity  1
     2 * M_S            0
     State number       1
     Total charge       1

     Total energy       -116.0963543751 au (Hartrees)
                         -3159.14250428 eV
                           -304810.9314 kJ/mol
                            -72851.5610 kcal/mol


                   Scalar Breit-Pauli relativistic corrections
                   -------------------------------------------

     Darwin correction:                          0.1785172206 au
     Mass-velocity correction:                  -0.2224281069 au

     Total relativistic correction:             -0.0439108863 au ( 0.0378%)
     Non-relativistic + relativistic energy:  -116.1402652614 au



      (Note that these corrections are NOT included in the results below.)


                             Molecular gradient (au)
                             -----------------------

 C1        -0.0339661589            0.0216378697            0.0002612583
 C2         0.0390668146           -0.0065817028           -0.0017305686
 C3        -0.0217672007           -0.0226833853            0.0019719419
 H          0.0063071052           -0.0006614503           -0.0065329482
 H          0.0056755031            0.0005518622            0.0066028601
 H         -0.0032386802            0.0105401947           -0.0011214741
 H          0.0020245824           -0.0010420505            0.0001746301
 H          0.0058980345           -0.0017613378            0.0003743006





                                  Dipole moment
                                  -------------

                 au               Debye          C m (/(10**-30)
              0.939811           2.388760           7.968046


                             Dipole moment components
                             ------------------------

                 au               Debye          C m (/(10**-30)

      x     -0.93677318        -2.38103978        -7.94229379
      y     -0.07482155        -0.19017740        -0.63436352
      z      0.01008838         0.02564211         0.08553286


   Units:   1 a.u. =   2.54175 Debye 
            1 a.u. =   8.47835 (10**-30) C m (SI)




   Interatomic separations (in Angstrom):
   --------------------------------------

            C1          C2          C3          H           H           H     
            ------      ------      ------      ------      ------      ------
 C1    :    0.000000
 C2    :    1.301356    0.000000
 C3    :    2.478614    1.492329    0.000000
 H     :    3.204667    2.130654    1.094254    0.000000
 H     :    3.158027    2.131059    1.094225    1.773811    0.000000
 H     :    2.646980    2.154825    1.094720    1.773557    1.775004    0.000000
 H     :    1.066388    2.367743    3.445970    4.181977    4.116328    3.385666
 H     :    2.054000    1.086566    2.205488    2.535193    2.576954    3.105980

            H           H     
            ------      ------
 H     :    0.000000
 H     :    3.039067    0.000000


  Max    interatomic separation is    4.1820 Angstrom (    7.9028 Bohr)
  between atoms    7 and    4, "H     " and "H     ".

  Min HX interatomic separation is    1.0664 Angstrom (    2.0152 Bohr)

  Min YX interatomic separation is    1.3014 Angstrom (    2.4592 Bohr)


  Bond distances (Angstrom):
  --------------------------

                  atom 1     atom 2       distance
                  ------     ------       --------
  bond distance:  C2         C1           1.301356
  bond distance:  C3         C2           1.492329
  bond distance:  H          C3           1.094254
  bond distance:  H          C3           1.094225
  bond distance:  H          C3           1.094720
  bond distance:  H          C1           1.066388
  bond distance:  H          C2           1.086566


  Bond angles (degrees):
  ----------------------

                  atom 1     atom 2     atom 3         angle
                  ------     ------     ------         -----
  bond angle:     C2         C1         H            179.917
  bond angle:     C1         C2         C3           124.912
  bond angle:     C1         C2         H            118.393
  bond angle:     C3         C2         H            116.687
  bond angle:     C2         C3         H            109.967
  bond angle:     C2         C3         H            110.001
  bond angle:     C2         C3         H            111.884
  bond angle:     H          C3         H            108.294
  bond angle:     H          C3         H            108.235
  bond angle:     H          C3         H            108.367


  Total CPU  time used in ABACUS:   0.12 seconds
  Total wall time used in ABACUS:   0.13 seconds


                   .-------------------------------------------.
                   | End of Static Property Section (ABACUS) - |
                   `-------------------------------------------'


Building simple model Hessian by Roland Lindh ...

Initial model Hessian in internal coordinates has been calculated


           :::::::::::::::::::::::::::::::::::::::::::::::::::::::::::
           ::::::::::::::: Optimization Control Center :::::::::::::::
           :::::::::::::::::::::::::::::::::::::::::::::::::::::::::::



                                Next geometry (au)
                                ------------------

 C1       -16.9038618307            0.5751660601           -0.0031002434
 C2       -14.7431526876           -0.5020239326            0.0431304491
 C3       -12.2296227267            0.8524540183            0.0024933811
 H        -11.1400986807            0.1602641429           -1.5910984725
 H        -11.2133381008            0.3870154162            1.7223079601
 H        -12.3903632200            2.8873463313           -0.1400488237
 H        -18.7101795614            1.4788502413           -0.0415195613
 H        -14.7281015000           -2.5529141352            0.0078542077





   Interatomic separations (in Angstrom):
   --------------------------------------

            C1          C2          C3          H           H           H     
            ------      ------      ------      ------      ------      ------
 C1    :    0.000000
 C2    :    1.277844    0.000000
 C3    :    2.477851    1.511085    0.000000
 H     :    3.171306    2.122741    1.085229    0.000000
 H     :    3.148248    2.121309    1.085424    1.757907    0.000000
 H     :    2.684582    2.185509    1.082803    1.763493    1.763472    0.000000
 H     :    1.069004    2.346848    3.445424    4.148087    4.116231    3.426750
 H     :    2.016362    1.085474    2.235043    2.526329    2.588975    3.134379

            H           H     
            ------      ------
 H     :    0.000000
 H     :    2.998829    0.000000


  Max    interatomic separation is    4.1481 Angstrom (    7.8387 Bohr)
  between atoms    7 and    4, "H     " and "H     ".

  Min HX interatomic separation is    1.0690 Angstrom (    2.0201 Bohr)

  Min YX interatomic separation is    1.2778 Angstrom (    2.4148 Bohr)


  Bond distances (Angstrom):
  --------------------------

                  atom 1     atom 2       distance
                  ------     ------       --------
  bond distance:  C2         C1           1.277844
  bond distance:  C3         C2           1.511085
  bond distance:  H          C3           1.085229
  bond distance:  H          C3           1.085424
  bond distance:  H          C3           1.082803
  bond distance:  H          C1           1.069004
  bond distance:  H          C2           1.085474


  Bond angles (degrees):
  ----------------------

                  atom 1     atom 2     atom 3         angle
                  ------     ------     ------         -----
  bond angle:     C2         C1         H            179.919
  bond angle:     C1         C2         C3           125.152
  bond angle:     C1         C2         H            116.888
  bond angle:     C3         C2         H            117.875
  bond angle:     C2         C3         H            108.578
  bond angle:     C2         C3         H            108.455
  bond angle:     C2         C3         H            113.801
  bond angle:     H          C3         H            108.163
  bond angle:     H          C3         H            108.860
  bond angle:     H          C3         H            108.844




                             Optimization information
                             ------------------------

 Iteration number               :       0
 End of optimization            :       F 
 Energy at this geometry is     :    -116.096354375077
 Norm of gradient               :       0.067170142034
 Norm of step                   :       0.197189950210
 Updated trust radius           :       0.500000000000
 Total effective Hessian index  :       0




 **************************************************************************************
 ****************** Output of molecule and basis set info suppressed ******************
 **************************************************************************************



                     .---------------------------------------.
                     | Starting in Integral Section (HERMIT) |
                     `---------------------------------------'



 ***************************************************************************************
 ****************** Output from **INTEGRALS input processing (HERMIT) ******************
 ***************************************************************************************


 - Using defaults, no **INTEGRALS input found

 Default print level:       -1

 Calculation of one- and two-electron Hamiltonian integrals.

 Center of mass  (bohr):    -14.504092199500      0.328617804202      0.011390246583
 Operator center (bohr):      0.000000000000      0.000000000000      0.000000000000
 Gauge origin    (bohr):      0.000000000000      0.000000000000      0.000000000000
 Dipole origin   (bohr):      0.000000000000      0.000000000000      0.000000000000


                      Nuclear contribution to dipole moments
                      --------------------------------------

                 au               Debye          C m (/(10**-30)

      x   -331.44190453      -842.44123707     -2810.08149000
      y      7.91413887        20.11573326        67.09886362
      z      0.21263683         0.54046888         1.80281013


  Total CPU  time used in HERMIT:   0.01 seconds
  Total wall time used in HERMIT:   0.01 seconds


                        .----------------------------------.
                        | End of Integral Section (HERMIT) |
                        `----------------------------------'



                   .--------------------------------------------.
                   | Starting in Wave Function Section (SIRIUS) |
                   `--------------------------------------------'

* Read MO coefficients from SIRIUS.RST with label "NEWORB  " and header info: 13Apr24  FOCKDIIS

 **********************************************************************
 *SIRIUS* a direct, restricted step, second order MCSCF program       *
 **********************************************************************

 (Wave function specification suppressed here, see output above for initial geometry.)


 ***********************************************
 ***** DIIS acceleration of SCF iterations *****
 ***********************************************

 C1-DIIS algorithm; max error vectors =    8

 Iter      Total energy        Error norm    Delta(E)  DIIS dim.
 -----------------------------------------------------------------------------

Calculating AOSUPINT

---> (Re)generating AOTWOINT

 Threshold for neglecting two-electron integrals:  1.00D-12
 HERMIT - Number of two-electron integrals written:      243406 ( 98.4% )
 HERMIT - Megabytes written:                              2.789

  Total CPU  time used in TWOINT:   0.04 seconds
  Total wall time used in TWOINT:   0.04 seconds
     (Precalculated AO two-electron integrals are transformed to P-supermatrix elements.
      Threshold for discarding integrals :  1.00D-12 )

@  1    -116.097445450        8.90223D-02   -1.09D-03    1
      Virial theorem: -V/T =      1.999553
@    MULPOP   C1      0.15; C2     -0.23; C3     -0.52; H       0.27; H       0.28; H       0.24; H       0.44; H       0.36; 
 -----------------------------------------------------------------------------
@  2    -116.098308200        2.47016D-02   -8.63D-04    2
      Virial theorem: -V/T =      1.999094
@    MULPOP   C1      0.16; C2     -0.24; C3     -0.51; H       0.27; H       0.27; H       0.25; H       0.44; H       0.37; 
 -----------------------------------------------------------------------------
@  3    -116.098402398        7.22737D-03   -9.42D-05    3
      Virial theorem: -V/T =      1.999218
@    MULPOP   C1      0.16; C2     -0.25; C3     -0.51; H       0.27; H       0.27; H       0.25; H       0.44; H       0.37; 
 -----------------------------------------------------------------------------
@  4    -116.098413358        2.90737D-03   -1.10D-05    4
      Virial theorem: -V/T =      1.999186
@    MULPOP   C1      0.16; C2     -0.25; C3     -0.51; H       0.27; H       0.27; H       0.25; H       0.44; H       0.37; 
 -----------------------------------------------------------------------------
@  5    -116.098416174        1.46033D-03   -2.82D-06    5
      Virial theorem: -V/T =      1.999193
@    MULPOP   C1      0.16; C2     -0.25; C3     -0.51; H       0.27; H       0.27; H       0.25; H       0.44; H       0.37; 
 -----------------------------------------------------------------------------
@  6    -116.098416722        6.63279D-04   -5.48D-07    6
      Virial theorem: -V/T =      1.999198
@    MULPOP   C1      0.16; C2     -0.25; C3     -0.51; H       0.27; H       0.27; H       0.25; H       0.44; H       0.37; 
 -----------------------------------------------------------------------------
@  7    -116.098416963        3.84882D-04   -2.41D-07    7
      Virial theorem: -V/T =      1.999197
@    MULPOP   C1      0.16; C2     -0.25; C3     -0.51; H       0.27; H       0.27; H       0.25; H       0.44; H       0.37; 
 -----------------------------------------------------------------------------
@  8    -116.098417084        1.90159D-04   -1.21D-07    8
      Virial theorem: -V/T =      1.999198
@    MULPOP   C1      0.16; C2     -0.25; C3     -0.51; H       0.27; H       0.27; H       0.25; H       0.44; H       0.37; 
 -----------------------------------------------------------------------------
@  9    -116.098417114        7.73503D-05   -3.02D-08    8
      Virial theorem: -V/T =      1.999197
@    MULPOP   C1      0.16; C2     -0.25; C3     -0.51; H       0.27; H       0.27; H       0.25; H       0.44; H       0.37; 
 -----------------------------------------------------------------------------
@ 10    -116.098417118        2.04107D-05   -3.36D-09    8
      Virial theorem: -V/T =      1.999197
@    MULPOP   C1      0.16; C2     -0.25; C3     -0.51; H       0.27; H       0.27; H       0.25; H       0.44; H       0.37; 
 -----------------------------------------------------------------------------
@ 11    -116.098417118        4.52307D-06   -1.25D-10    8

@ *** DIIS converged in  11 iterations !
@     Converged SCF energy, gradient:   -116.098417117901    4.52D-06
    - total time used in SIRFCK :              0.00 seconds


 *** SCF orbital energy analysis ***

 Only the 20 lowest virtual orbital energies printed in each symmetry.

 Number of electrons        :   22
 Closed shell orbitals      :   11

 Sym       Hartree-Fock orbital energies

1 A     -11.61338955   -11.54615169   -11.45881820    -1.37283379    -1.18741689
         -1.04345961    -0.93402567    -0.81830976    -0.80338836    -0.76002611
         -0.67600300    -0.20641774    -0.08696856     0.02444435     0.06517051
          0.08613547     0.12781041     0.12993950     0.18865607     0.33235862
          0.41497077     0.47368230     0.55196614     0.60956431     0.61903469
          0.63599019     0.65322034     0.74524843     0.79027623     0.80528219
          0.95966518

    E(LUMO) :    -0.20641774 au (symmetry 1)
  - E(HOMO) :    -0.67600300 au (symmetry 1)
  ------------------------------------------
    gap     :     0.46958526 au

 --- Writing SIRIFC interface file

--------------------------------------------------------------------------------


     .--------------------------------------------------.
     | HF-SCF KT IPs [a.u. & eV] from Koopmans' theorem |
     `--------------------------------------------------'


     HF-SCF KT symmetry 1 ( A  ) in point group C1  -- 11 principal poles with pole strength 1

   ============  ============  ============  ============  ============
      11.613390     11.546152     11.458818      1.372834      1.187417
     316.016405    314.186770    311.810305     37.356708     32.311257
   ============  ============  ============  ============  ============

   ============  ============  ============  ============  ============
       1.043460      0.934026      0.818310      0.803388      0.760026
      28.393980     25.416131     22.267341     21.861309     20.681363
   ============  ============  ============  ============  ============

   ============
       0.676003
      18.394977
   ============

@ Summary of HF-SCF KT ionization potentials [eV]:

@ Symmetry 1 (A  ) :   316.016     314.187     311.810      37.357      32.311
@                       28.394      25.416      22.267      21.861      20.681
@                       18.395

  === End of HF-SCF KT output ===
--------------------------------------------------------------------------------


 CPU and wall time for SCF :       0.072       0.583


                       .-----------------------------------.
                       | --- Final results from SIRIUS --- |
                       `-----------------------------------'


@    Spin multiplicity:           1
@    Spatial symmetry:            1 ( irrep  A   in C1  )
@    Total charge of molecule:    1

@    Final HF energy:            -116.098417117901                 
@    Nuclear repulsion:            64.860105286451
@    Electronic energy:          -180.958522404352

@    Final gradient norm:           0.000004523069

 
     Date and time (Linux)  : Sat Apr 13 14:15:58 2024
     Host name              : node100                                 

  Total CPU  time used in SIRIUS :   0.08 seconds
  Total wall time used in SIRIUS :   0.62 seconds

 
     Date and time (Linux)  : Sat Apr 13 14:15:58 2024
     Host name              : node100                                 


                     .---------------------------------------.
                     | End of Wave Function Section (SIRIUS) |
                     `---------------------------------------'

 Trust radius increased due to good ratio.
 Updated trust radius   0.50000

 Center of mass dipole origin  :  -14.504092    0.328618    0.011390

 Center of mass gauge origin   :  -14.504092    0.328618    0.011390


                 .------------------------------------------------.
                 | Starting in Static Property Section (ABACUS) - |
                 `------------------------------------------------'


 
     Date and time (Linux)  : Sat Apr 13 14:15:58 2024
     Host name              : node100                                 

 Largest deviation from tra-rot symmetry is in gradient element  6:  3.94E-07


   ***************************************************************************
   ************************ FINAL RESULTS from ABACUS ************************
   ***************************************************************************


 
     Date and time (Linux)  : Sat Apr 13 14:15:58 2024
     Host name              : node100                                 
  Total CPU  time used in ABACUS:   0.12 seconds
  Total wall time used in ABACUS:   0.12 seconds


                   .-------------------------------------------.
                   | End of Static Property Section (ABACUS) - |
                   `-------------------------------------------'



           :::::::::::::::::::::::::::::::::::::::::::::::::::::::::::
           ::::::::::::::: Optimization Control Center :::::::::::::::
           :::::::::::::::::::::::::::::::::::::::::::::::::::::::::::



                                Next geometry (au)
                                ------------------

 C1       -16.8943385479            0.5548899666           -0.0535774224
 C2       -14.7544081271           -0.4863708843           -0.1535634607
 C3       -12.1995947125            0.8815717240           -0.0307027278
 H        -11.0794219890            0.2157680906           -1.5929819645
 H        -11.2916461867            0.3216857953            1.7087099841
 H        -12.3458321187            2.8996744872           -0.1011869093
 H        -18.7150626953            1.4409389348            0.0349043269
 H        -14.7784139307           -2.5419999720            0.1884170709





   Interatomic separations (in Angstrom):
   --------------------------------------

            C1          C2          C3          H           H           H     
            ------      ------      ------      ------      ------      ------
 C1    :    0.000000
 C2    :    1.260456    0.000000
 C3    :    2.490388    1.534927    0.000000
 H     :    3.188178    2.121364    1.076560    0.000000
 H     :    3.110473    2.124087    1.079755    1.751683    0.000000
 H     :    2.708084    2.199066    1.071384    1.757681    1.757718    0.000000
 H     :    1.072540    2.332995    3.460694    4.181976    4.070245    3.458469
 H     :    1.988920    1.102816    2.271099    2.617219    2.519547    3.157958

            H           H     
            ------      ------
 H     :    0.000000
 H     :    2.964553    0.000000


  Max    interatomic separation is    4.1820 Angstrom (    7.9028 Bohr)
  between atoms    7 and    4, "H     " and "H     ".

  Min HX interatomic separation is    1.0714 Angstrom (    2.0246 Bohr)

  Min YX interatomic separation is    1.2605 Angstrom (    2.3819 Bohr)


  Bond distances (Angstrom):
  --------------------------

                  atom 1     atom 2       distance
                  ------     ------       --------
  bond distance:  C2         C1           1.260456
  bond distance:  C3         C2           1.534927
  bond distance:  H          C3           1.076560
  bond distance:  H          C3           1.079755
  bond distance:  H          C3           1.071384
  bond distance:  H          C1           1.072540
  bond distance:  H          C2           1.102816


  Bond angles (degrees):
  ----------------------

                  atom 1     atom 2     atom 3         angle
                  ------     ------     ------         -----
  bond angle:     C2         C1         H            179.904
  bond angle:     C1         C2         C3           125.688
  bond angle:     C1         C2         H            114.454
  bond angle:     C3         C2         H            117.929
  bond angle:     C2         C3         H            107.344
  bond angle:     C2         C3         H            107.375
  bond angle:     C2         C3         H            113.891
  bond angle:     H          C3         H            108.652
  bond angle:     H          C3         H            109.831
  bond angle:     H          C3         H            109.593




                             Optimization information
                             ------------------------

 Iteration number               :       1
 End of optimization            :       F 
 Energy at this geometry is     :    -116.098417117901
 Energy change from last geom.  :      -0.002062742824
 Predicted change               :      -0.001858327573
 Ratio, actual/predicted change :       1.109999579150
 Norm of gradient               :       0.021836160854
 Norm of step                   :       0.487383422637
 Updated trust radius           :       0.500000000000
 Total effective Hessian index  :       0




 **************************************************************************************
 ****************** Output of molecule and basis set info suppressed ******************
 **************************************************************************************



                     .---------------------------------------.
                     | Starting in Integral Section (HERMIT) |
                     `---------------------------------------'



 ***************************************************************************************
 ****************** Output from **INTEGRALS input processing (HERMIT) ******************
 ***************************************************************************************


 - Using defaults, no **INTEGRALS input found

 Default print level:       -1

 Calculation of one- and two-electron Hamiltonian integrals.

 Center of mass  (bohr):    -14.496513260679      0.335178606732     -0.063705050913
 Operator center (bohr):      0.000000000000      0.000000000000      0.000000000000
 Gauge origin    (bohr):      0.000000000000      0.000000000000      0.000000000000
 Dipole origin   (bohr):      0.000000000000      0.000000000000      0.000000000000


                      Nuclear contribution to dipole moments
                      --------------------------------------

                 au               Debye          C m (/(10**-30)

      x   -331.30042525      -842.08163261     -2808.88197864
      y      8.03661217        20.42702932        68.13723553
      z     -1.18919916        -3.02264257       -10.08245033


  Total CPU  time used in HERMIT:   0.01 seconds
  Total wall time used in HERMIT:   0.01 seconds


                        .----------------------------------.
                        | End of Integral Section (HERMIT) |
                        `----------------------------------'



                   .--------------------------------------------.
                   | Starting in Wave Function Section (SIRIUS) |
                   `--------------------------------------------'

* Read MO coefficients from SIRIUS.RST with label "NEWORB  " and header info: 13Apr24  FOCKDIIS

 **********************************************************************
 *SIRIUS* a direct, restricted step, second order MCSCF program       *
 **********************************************************************

 (Wave function specification suppressed here, see output above for initial geometry.)


 ***********************************************
 ***** DIIS acceleration of SCF iterations *****
 ***********************************************

 C1-DIIS algorithm; max error vectors =    8

 Iter      Total energy        Error norm    Delta(E)  DIIS dim.
 -----------------------------------------------------------------------------

Calculating AOSUPINT

---> (Re)generating AOTWOINT

 Threshold for neglecting two-electron integrals:  1.00D-12
 HERMIT - Number of two-electron integrals written:      243418 ( 98.4% )
 HERMIT - Megabytes written:                              2.789

  Total CPU  time used in TWOINT:   0.04 seconds
  Total wall time used in TWOINT:   0.04 seconds
     (Precalculated AO two-electron integrals are transformed to P-supermatrix elements.
      Threshold for discarding integrals :  1.00D-12 )

@  1    -116.089963553        2.10252D-01    8.45D-03    1
      Virial theorem: -V/T =      1.998908
@    MULPOP   C1      0.17; C2     -0.27; C3     -0.50; H       0.27; H       0.28; H       0.25; H       0.44; H       0.37; 
 -----------------------------------------------------------------------------
@  2    -116.094894549        5.98166D-02   -4.93D-03    2
      Virial theorem: -V/T =      1.998833
@    MULPOP   C1      0.17; C2     -0.27; C3     -0.49; H       0.27; H       0.27; H       0.25; H       0.44; H       0.37; 
 -----------------------------------------------------------------------------
@  3    -116.095509656        2.15974D-02   -6.15D-04    3
      Virial theorem: -V/T =      1.998865
@    MULPOP   C1      0.18; C2     -0.29; C3     -0.49; H       0.27; H       0.27; H       0.25; H       0.44; H       0.37; 
 -----------------------------------------------------------------------------
@  4    -116.095605136        1.25007D-02   -9.55D-05    4
      Virial theorem: -V/T =      1.998887
@    MULPOP   C1      0.18; C2     -0.29; C3     -0.49; H       0.27; H       0.27; H       0.25; H       0.44; H       0.37; 
 -----------------------------------------------------------------------------
@  5    -116.095675263        7.47265D-03   -7.01D-05    5
      Virial theorem: -V/T =      1.998877
@    MULPOP   C1      0.18; C2     -0.29; C3     -0.49; H       0.27; H       0.27; H       0.25; H       0.44; H       0.37; 
 -----------------------------------------------------------------------------
@  6    -116.095720091        3.20371D-03   -4.48D-05    6
      Virial theorem: -V/T =      1.998895
@    MULPOP   C1      0.18; C2     -0.29; C3     -0.49; H       0.27; H       0.27; H       0.25; H       0.44; H       0.37; 
 -----------------------------------------------------------------------------
@  7    -116.095728274        1.32775D-03   -8.18D-06    7
      Virial theorem: -V/T =      1.998885
@    MULPOP   C1      0.18; C2     -0.29; C3     -0.49; H       0.27; H       0.27; H       0.25; H       0.44; H       0.37; 
 -----------------------------------------------------------------------------
@  8    -116.095729411        3.32811D-04   -1.14D-06    8
      Virial theorem: -V/T =      1.998887
@    MULPOP   C1      0.18; C2     -0.29; C3     -0.49; H       0.27; H       0.27; H       0.25; H       0.44; H       0.37; 
 -----------------------------------------------------------------------------
@  9    -116.095729456        9.66983D-05   -4.43D-08    8
      Virial theorem: -V/T =      1.998887
@    MULPOP   C1      0.18; C2     -0.29; C3     -0.49; H       0.27; H       0.27; H       0.25; H       0.44; H       0.37; 
 -----------------------------------------------------------------------------
@ 10    -116.095729458        3.55050D-05   -2.13D-09    8
      Virial theorem: -V/T =      1.998886
@    MULPOP   C1      0.18; C2     -0.29; C3     -0.49; H       0.27; H       0.27; H       0.25; H       0.44; H       0.37; 
 -----------------------------------------------------------------------------
@ 11    -116.095729458        8.41952D-06   -3.11D-10    8

@ *** DIIS converged in  11 iterations !
@     Converged SCF energy, gradient:   -116.095729458074    8.42D-06
    - total time used in SIRFCK :              0.00 seconds


 *** SCF orbital energy analysis ***

 Only the 20 lowest virtual orbital energies printed in each symmetry.

 Number of electrons        :   22
 Closed shell orbitals      :   11

 Sym       Hartree-Fock orbital energies

1 A     -11.61039851   -11.54299010   -11.46011154    -1.37537951    -1.18815451
         -1.04036992    -0.92716769    -0.81363444    -0.80452803    -0.76532594
         -0.68030173    -0.20486065    -0.08340829     0.02438984     0.06075617
          0.08734081     0.12931864     0.13276979     0.18144851     0.33515922
          0.41012542     0.47186025     0.55168770     0.60579408     0.61605735
          0.63652170     0.65737624     0.74801078     0.79003507     0.81257857
          0.94702018

    E(LUMO) :    -0.20486065 au (symmetry 1)
  - E(HOMO) :    -0.68030173 au (symmetry 1)
  ------------------------------------------
    gap     :     0.47544108 au

[...]
 HERMIT - Number of two-electron integrals written:      243335 ( 98.3% )
 HERMIT - Megabytes written:                              2.789

  Total CPU  time used in TWOINT:   0.04 seconds
  Total wall time used in TWOINT:   0.04 seconds
     (Precalculated AO two-electron integrals are transformed to P-supermatrix elements.
      Threshold for discarding integrals :  1.00D-12 )

@  1    -116.098923349        2.58069D-04   -8.86D-09    1
      Virial theorem: -V/T =      1.999112
@    MULPOP   C1      0.17; C2     -0.28; C3     -0.49; H       0.27; H       0.27; H       0.25; H       0.44; H       0.36; 
 -----------------------------------------------------------------------------
@  2    -116.098923357        7.81992D-05   -7.91D-09    2
      Virial theorem: -V/T =      1.999112
@    MULPOP   C1      0.17; C2     -0.28; C3     -0.49; H       0.27; H       0.27; H       0.25; H       0.44; H       0.36; 
 -----------------------------------------------------------------------------
@  3    -116.098923358        2.64699D-05   -1.04D-09    3
      Virial theorem: -V/T =      1.999112
@    MULPOP   C1      0.17; C2     -0.28; C3     -0.49; H       0.27; H       0.27; H       0.25; H       0.44; H       0.36; 
 -----------------------------------------------------------------------------
@  4    -116.098923358        1.27198D-05   -1.16D-10    4
      Virial theorem: -V/T =      1.999112
@    MULPOP   C1      0.17; C2     -0.28; C3     -0.49; H       0.27; H       0.27; H       0.25; H       0.44; H       0.36; 
 -----------------------------------------------------------------------------
@  5    -116.098923358        7.41943D-06   -5.22D-11    5

@ *** DIIS converged in   5 iterations !
@     Converged SCF energy, gradient:   -116.098923358305    7.42D-06
    - total time used in SIRFCK :              0.00 seconds


 *** SCF orbital energy analysis ***

 Only the 20 lowest virtual orbital energies printed in each symmetry.

 Number of electrons        :   22
 Closed shell orbitals      :   11

 Sym       Hartree-Fock orbital energies

1 A     -11.61209605   -11.54449189   -11.45977699    -1.37198277    -1.18823747
         -1.04276589    -0.93139390    -0.81377166    -0.80440827    -0.76330552
         -0.67856388    -0.20605146    -0.08421239     0.02518351     0.06481476
          0.08704875     0.12910909     0.13004924     0.18548351     0.33613098
          0.41112932     0.47330123     0.55042555     0.60752307     0.61670967
          0.63909563     0.65125063     0.75003982     0.78370357     0.80377528
          0.95850098

    E(LUMO) :    -0.20605146 au (symmetry 1)
  - E(HOMO) :    -0.67856388 au (symmetry 1)
  ------------------------------------------
    gap     :     0.47251243 au

 --- Writing SIRIFC interface file

--------------------------------------------------------------------------------


     .--------------------------------------------------.
     | HF-SCF KT IPs [a.u. & eV] from Koopmans' theorem |
     `--------------------------------------------------'


     HF-SCF KT symmetry 1 ( A  ) in point group C1  -- 11 principal poles with pole strength 1

   ============  ============  ============  ============  ============
      11.612096     11.544492     11.459777      1.371983      1.188237
     315.981207    314.141604    311.836395     37.333550     32.333586
   ============  ============  ============  ============  ============

   ============  ============  ============  ============  ============
       1.042766      0.931394      0.813772      0.804408      0.763306
      28.375103     25.344517     22.143853     21.889062     20.770600
   ============  ============  ============  ============  ============

   ============
       0.678564
      18.464663
   ============

@ Summary of HF-SCF KT ionization potentials [eV]:

@ Symmetry 1 (A  ) :   315.981     314.142     311.836      37.334      32.334
@                       28.375      25.345      22.144      21.889      20.771
@                       18.465

  === End of HF-SCF KT output ===
--------------------------------------------------------------------------------


 CPU and wall time for SCF :       0.060       0.199


                       .-----------------------------------.
                       | --- Final results from SIRIUS --- |
                       `-----------------------------------'


@    Spin multiplicity:           1
@    Spatial symmetry:            1 ( irrep  A   in C1  )
@    Total charge of molecule:    1

@    Final HF energy:            -116.098923358305                 
@    Nuclear repulsion:            64.706644876252
@    Electronic energy:          -180.805568234558

@    Final gradient norm:           0.000007419429

 
     Date and time (Linux)  : Sat Apr 13 14:16:03 2024
     Host name              : node100                                 

  Total CPU  time used in SIRIUS :   0.06 seconds
  Total wall time used in SIRIUS :   0.22 seconds

 
     Date and time (Linux)  : Sat Apr 13 14:16:03 2024
     Host name              : node100                                 


                     .---------------------------------------.
                     | End of Wave Function Section (SIRIUS) |
                     `---------------------------------------'

 Trust radius increased due to good ratio.
 Updated trust radius   0.15753

 Center of mass dipole origin  :  -14.497954    0.341130   -0.001290

 Center of mass gauge origin   :  -14.497954    0.341130   -0.001290


                 .------------------------------------------------.
                 | Starting in Static Property Section (ABACUS) - |
                 `------------------------------------------------'


 
     Date and time (Linux)  : Sat Apr 13 14:16:03 2024
     Host name              : node100                                 

 Largest deviation from tra-rot symmetry is in gradient element  6:  4.60E-06


   ***************************************************************************
   ************************ FINAL RESULTS from ABACUS ************************
   ***************************************************************************


 
     Date and time (Linux)  : Sat Apr 13 14:16:03 2024
     Host name              : node100                                 
  Total CPU  time used in ABACUS:   0.12 seconds
  Total wall time used in ABACUS:   0.12 seconds


                   .-------------------------------------------.
                   | End of Static Property Section (ABACUS) - |
                   `-------------------------------------------'



            *********************************************************
            *** Output from geometry convergence control (MINEND) ***
            *********************************************************


 Energy converged       yes 
 Gradient converged     yes 
 Step converged         no  
 Conditions fullfilled   2
 Required conditions     2
 Totally sym. index      0
 Hessian index           0
 End of optimization    yes 


           :::::::::::::::::::::::::::::::::::::::::::::::::::::::::::
           ::::::::::::::: Optimization Control Center :::::::::::::::
           :::::::::::::::::::::::::::::::::::::::::::::::::::::::::::



                               Final geometry (au)
                               -------------------

 C1       -16.9179812908            0.5744036718           -0.0302842825
 C2       -14.7506909550           -0.4633810503            0.0275340993
 C3       -12.1850467101            0.8612858259           -0.0020660704
 H        -11.1500875481            0.1969106244           -1.6335579003
 H        -11.1769172874            0.3232562609            1.6915856415
 H        -12.3632475797            2.8876543061           -0.0804948785
 H        -18.7499929852            1.4217803164           -0.0790492772
 H        -14.7647539516           -2.5157518129            0.1063515654





                             Optimization information
                             ------------------------

 Iteration number               :      10
 End of optimization            :       T 
 Energy at this geometry is     :    -116.098923358305
 Energy change from last geom.  :      -0.000000017977
 Predicted change               :      -0.000000013645
 Ratio, actual/predicted change :       1.317462761159
 Norm of gradient               :       0.000045343427
 Norm of step                   :       0.000279508218
 Updated trust radius           :       0.157534659568
 Total effective Hessian index  :       0




          <<<<<<<<<<<<<<<<<<<<<<<<<<<<<<<<<<<<<<<<<<<<<<<<<<<<<<<<<<<<<<
          <<<<<<<<<<<<<<<<<<<<  End of Optimization <<<<<<<<<<<<<<<<<<<<
          <<<<<<<<<<<<<<<<<<<<<<<<<<<<<<<<<<<<<<<<<<<<<<<<<<<<<<<<<<<<<<



                              Final geometry (bohr)
                              ---------------------

 C1       -16.9179812908            0.5744036718           -0.0302842825
 C2       -14.7506909550           -0.4633810503            0.0275340993
 C3       -12.1850467101            0.8612858259           -0.0020660704
 H        -11.1500875481            0.1969106244           -1.6335579003
 H        -11.1769172874            0.3232562609            1.6915856415
 H        -12.3632475797            2.8876543061           -0.0804948785
 H        -18.7499929852            1.4217803164           -0.0790492772
 H        -14.7647539516           -2.5157518129            0.1063515654





                      Final geometry (xyz format; angstrom)
                      -------------------------------------

8

C1      -8.9526101518            0.3039613329           -0.0160257521
C2      -7.8057294970           -0.2452106917            0.0145704179
C3      -6.4480490315            0.4557728311           -0.0010933174
H       -5.9003722289            0.1042006150           -0.8644416134
H       -5.9145699155            0.1710598465            0.8951485716
H       -6.5423488706            1.5280808515           -0.0425960553
H       -9.9220689904            0.7523737422           -0.0418310760
H       -7.8131713143           -1.3312785274            0.0562788247



@ Iter     Energy        Change       GradNorm  Index   StepLen    TrustRad #Rej
@ ------------------------------------------------------------------------------
@   0     -116.096354     0.000000     0.067170    0    0.197190*   0.500000   0 
@   1     -116.098417    -0.002063     0.021836    0    0.157535*   0.500000   1 
@   2     -116.098656    -0.000239     0.012169    0    0.084484*   0.157535   0 
@   3     -116.098882    -0.000226     0.004495    0    0.033975*   0.157535   0 
@   4     -116.098909    -0.000027     0.000842    0    0.029568*   0.157535   0 
@   5     -116.098917    -0.000008     0.001172    0    0.024049*   0.157535   0 
@   6     -116.098920    -0.000004     0.001177    0    0.024172*   0.157535   0 
@   7     -116.098923    -0.000002     0.000732    0    0.009021*   0.157535   0 
@   8     -116.098923    -0.000001     0.000322    0    0.001939*   0.157535   0 
@   9     -116.098923    -0.000000     0.000115    0    0.000711*   0.157535   0 
@  10     -116.098923    -0.000000     0.000045    0    0.000280*   0.157535   0 

@  *) Newton step taken.


   Interatomic separations (in Angstrom):
   --------------------------------------

            C1          C2          C3          H           H           H     
            ------      ------      ------      ------      ------      ------
 C1    :    0.000000
 C2    :    1.271952    0.000000
 C3    :    2.509202    1.528044    0.000000
 H     :    3.174251    2.127237    1.081168    0.000000
 H     :    3.174522    2.127248    1.081162    1.760917    0.000000
 H     :    2.703430    2.178064    1.077246    1.764936    1.764930    0.000000
 H     :    1.068452    2.340352    3.486896    4.155823    4.156429    3.467597
 H     :    1.994382    1.086894    2.249534    2.562641    2.562306    3.130607

            H           H     
            ------      ------
 H     :    0.000000
 H     :    2.966257    0.000000


  Max    interatomic separation is    4.1564 Angstrom (    7.8545 Bohr)
  between atoms    7 and    5, "H     " and "H     ".

  Min HX interatomic separation is    1.0685 Angstrom (    2.0191 Bohr)

  Min YX interatomic separation is    1.2720 Angstrom (    2.4036 Bohr)


  Bond distances (Angstrom):
  --------------------------

                  atom 1     atom 2       distance
                  ------     ------       --------
  bond distance:  C2         C1           1.271952
  bond distance:  C3         C2           1.528044
  bond distance:  H          C3           1.081168
  bond distance:  H          C3           1.081162
  bond distance:  H          C3           1.077246
  bond distance:  H          C1           1.068452
  bond distance:  H          C2           1.086894


  Bond angles (degrees):
  ----------------------

                  atom 1     atom 2     atom 3         angle
                  ------     ------     ------         -----
  bond angle:     C2         C1         H            179.236
  bond angle:     C1         C2         C3           127.073
  bond angle:     C1         C2         H            115.225
  bond angle:     C3         C2         H            117.702
  bond angle:     C2         C3         H            108.005
  bond angle:     C2         C3         H            108.006
  bond angle:     C2         C3         H            112.288
  bond angle:     H          C3         H            109.048
  bond angle:     H          C3         H            109.710
  bond angle:     H          C3         H            109.710



@ Geometry converged in 11 iterations!

@ Energy at final geometry is       :    -116.098923 a.u.
@ Energy change during optimization :      -0.002569 a.u.
@                                             -6.745 kJ/mol
 

 Center of mass dipole origin  :  -14.497954    0.341130   -0.001290

 Center of mass gauge origin   :  -14.497954    0.341130   -0.001290


                 .------------------------------------------------.
                 | Starting in Static Property Section (ABACUS) - |
                 `------------------------------------------------'


 
     Date and time (Linux)  : Sat Apr 13 14:16:03 2024
     Host name              : node100                                 


   ***************************************************************************
   ************************ FINAL RESULTS from ABACUS ************************
   ***************************************************************************


 
     Date and time (Linux)  : Sat Apr 13 14:16:03 2024
     Host name              : node100                                 


                             Molecular geometry (au)
                             -----------------------

 C1       -16.9179812908            0.5744036718           -0.0302842825
 C2       -14.7506909550           -0.4633810503            0.0275340993
 C3       -12.1850467101            0.8612858259           -0.0020660704
 H        -11.1500875481            0.1969106244           -1.6335579003
 H        -11.1769172874            0.3232562609            1.6915856415
 H        -12.3632475797            2.8876543061           -0.0804948785
 H        -18.7499929852            1.4217803164           -0.0790492772
 H        -14.7647539516           -2.5157518129            0.1063515654





                        Molecular wave function and energy
                        ----------------------------------

     Spatial symmetry   1 ( A   )
     Spin multiplicity  1
     2 * M_S            0
     State number       1
     Total charge       1

     Total energy       -116.0989233583 au (Hartrees)
                         -3159.21240987 eV
                           -304817.6763 kJ/mol
                            -72853.1731 kcal/mol


                   Scalar Breit-Pauli relativistic corrections
                   -------------------------------------------

     Darwin correction:                          0.1785592938 au
     Mass-velocity correction:                  -0.2224985264 au

     Total relativistic correction:             -0.0439392325 au ( 0.0378%)
     Non-relativistic + relativistic energy:  -116.1428625908 au



      (Note that these corrections are NOT included in the results below.)


                                  Dipole moment
                                  -------------

                 au               Debye          C m (/(10**-30)
              0.955751           2.429277           8.103197


                             Dipole moment components
                             ------------------------

                 au               Debye          C m (/(10**-30)

      x     -0.95070279        -2.41644530        -8.06039391
      y     -0.09800016        -0.24909155        -0.83087998
      z     -0.00454244        -0.01154573        -0.03851243


   Units:   1 a.u. =   2.54175 Debye 
            1 a.u. =   8.47835 (10**-30) C m (SI)




   Interatomic separations (in Angstrom):
   --------------------------------------

            C1          C2          C3          H           H           H     
            ------      ------      ------      ------      ------      ------
 C1    :    0.000000
 C2    :    1.271952    0.000000
 C3    :    2.509202    1.528044    0.000000
 H     :    3.174251    2.127237    1.081168    0.000000
 H     :    3.174522    2.127248    1.081162    1.760917    0.000000
 H     :    2.703430    2.178064    1.077246    1.764936    1.764930    0.000000
 H     :    1.068452    2.340352    3.486896    4.155823    4.156429    3.467597
 H     :    1.994382    1.086894    2.249534    2.562641    2.562306    3.130607

            H           H     
            ------      ------
 H     :    0.000000
 H     :    2.966257    0.000000


  Max    interatomic separation is    4.1564 Angstrom (    7.8545 Bohr)
  between atoms    7 and    5, "H     " and "H     ".

  Min HX interatomic separation is    1.0685 Angstrom (    2.0191 Bohr)

  Min YX interatomic separation is    1.2720 Angstrom (    2.4036 Bohr)


  Bond distances (Angstrom):
  --------------------------

                  atom 1     atom 2       distance
                  ------     ------       --------
  bond distance:  C2         C1           1.271952
  bond distance:  C3         C2           1.528044
  bond distance:  H          C3           1.081168
  bond distance:  H          C3           1.081162
  bond distance:  H          C3           1.077246
  bond distance:  H          C1           1.068452
  bond distance:  H          C2           1.086894


  Bond angles (degrees):
  ----------------------

                  atom 1     atom 2     atom 3         angle
                  ------     ------     ------         -----
  bond angle:     C2         C1         H            179.236
  bond angle:     C1         C2         C3           127.073
  bond angle:     C1         C2         H            115.225
  bond angle:     C3         C2         H            117.702
  bond angle:     C2         C3         H            108.005
  bond angle:     C2         C3         H            108.006
  bond angle:     C2         C3         H            112.288
  bond angle:     H          C3         H            109.048
  bond angle:     H          C3         H            109.710
  bond angle:     H          C3         H            109.710


  Total CPU  time used in ABACUS:   0.01 seconds
  Total wall time used in ABACUS:   0.01 seconds


                   .-------------------------------------------.
                   | End of Static Property Section (ABACUS) - |
                   `-------------------------------------------'

  Total CPU  time used in DALTON:   2.60 seconds
  Total wall time used in DALTON:   7.57 seconds

 
     Date and time (Linux)  : Sat Apr 13 14:16:03 2024
     Host name              : node100                                 
