

     ************************************************************************
     *************** Dalton - An Electronic Structure Program ***************
     ************************************************************************

    This is output from DALTON release Dalton2022.0-dev (2022)
         ( Web site: http://daltonprogram.org )

   ----------------------------------------------------------------------------

    NOTE:
     
    Dalton is an experimental code for the evaluation of molecular
    properties using (MC)SCF, DFT, CI, and CC wave functions.
    The authors accept no responsibility for the performance of
    the code or for the correctness of the results.
     
    The code (in whole or part) is provided under a licence and
    is not to be reproduced for further distribution without
    the written permission of the authors or their representatives.
     
    See the home page "http://daltonprogram.org" for further information.
     
    If results obtained with this code are published,
    the appropriate citations would be both of:
     
       K. Aidas, C. Angeli, K. L. Bak, V. Bakken,
       R. Bast, L. Boman, O. Christiansen, R. Cimiraglia,
       S. Coriani, P. Dahle, E. K. Dalskov, U. Ekstroem,
       T. Enevoldsen, J. J. Eriksen, P. Ettenhuber, B. Fernandez,
       L. Ferrighi, H. Fliegl, L. Frediani, K. Hald, A. Halkier,
       C. Haettig, H. Heiberg, T. Helgaker, A. C. Hennum,
       H. Hettema, E. Hjertenaes, S. Hoest, I.-M. Hoeyvik,
       M. F. Iozzi, B. Jansik, H. J. Aa. Jensen, D. Jonsson,
       P. Joergensen, J. Kauczor, S. Kirpekar,
       T. Kjaergaard, W. Klopper, S. Knecht, R. Kobayashi, H. Koch,
       J. Kongsted, A. Krapp, K. Kristensen, A. Ligabue,
       O. B. Lutnaes, J. I. Melo, K. V. Mikkelsen, R. H. Myhre,
       C. Neiss, C. B. Nielsen, P. Norman, J. Olsen,
       J. M. H. Olsen, A. Osted, M. J. Packer, F. Pawlowski,
       T. B. Pedersen, P. F. Provasi, S. Reine, Z. Rinkevicius,
       T. A. Ruden, K. Ruud, V. Rybkin, P. Salek, C. C. M. Samson,
       A. Sanchez de Meras, T. Saue, S. P. A. Sauer,
       B. Schimmelpfennig, K. Sneskov, A. H. Steindal,
       K. O. Sylvester-Hvid, P. R. Taylor, A. M. Teale,
       E. I. Tellgren, D. P. Tew, A. J. Thorvaldsen, L. Thoegersen,
       O. Vahtras, M. A. Watson, D. J. D. Wilson, M. Ziolkowski
       and H. Agren,
       "The Dalton quantum chemistry program system",
       WIREs Comput. Mol. Sci. 2014, 4:269-284 (doi: 10.1002/wcms.1172)
     
    and
     
       Dalton, a molecular electronic structure program,
       Release Dalton2022.0-dev (2022), see http://daltonprogram.org
   ----------------------------------------------------------------------------

    Authors in alphabetical order (Major contribution(s) in parenthesis):

  Kestutis Aidas,              Vilnius University,        Lithuania   (QM/MM)
  Celestino Angeli,            University of Ferrara,     Italy       (NEVPT2)
  Juan J. Aucar,               Northeast National UniversiArgentina   (LRESC, Relativistic Effects on EFG)
  Keld L. Bak,                 UNI-C,                     Denmark     (AOSOPPA, non-adiabatic coupling, magnetic properties)
  Vebjoern Bakken,             University of Oslo,        Norway      (DALTON; geometry optimizer, symmetry detection)
  Radovan Bast,                UiT The Arctic U. of NorwayNorway      (DALTON installation and execution frameworks)
  Pablo Baudin,                University of Valencia,    Spain       (Cholesky excitation energies)
  Linus Boman,                 NTNU,                      Norway      (Cholesky decomposition and subsystems)
  Bruno N. Cabral Tenorio,     Technical Univ. of Denmark,Denmark     (Lanczos-based CC methods)
  Ove Christiansen,            Aarhus University,         Denmark     (CC module)
  Renzo Cimiraglia,            University of Ferrara,     Italy       (NEVPT2)
  Sonia Coriani,               Technical Univ. of Denmark,Denmark     (CC and RESPONS modules)
  Janusz Cukras,               University of Warsaw,      Poland      (MChD in RESPONS)
  Paal Dahle,                  University of Oslo,        Norway      (Parallelization)
  Erik K. Dalskov,             UNI-C,                     Denmark     (SOPPA)
  Thomas Enevoldsen,           Univ. of Southern Denmark, Denmark     (SOPPA)
  Janus J. Eriksen,            Aarhus University,         Denmark     (Polarizable embedding, TDA)
  Rasmus Faber,                Technical Univ. of Denmark,Denmark     (Vib.avg. NMR w. SOPPA, parallel AO-SOPPA, CVS-CC and EOMCC)
  Tobias Fahleson,             KTH Stockholm,             Sweden      (Damped cubic response)
  Berta Fernandez,             U. of Santiago de CompostelSpain       (Doublet spin, ESR in RESPONS)
  Lara Ferrighi,               Aarhus University,         Denmark     (PCM Cubic response)
  Heike Fliegl,                University of Oslo,        Norway      (CCSD(R12))
  Luca Frediani,               UiT The Arctic U. of NorwayNorway      (PCM)
  Emmanuel Fromager,           Univ. Strasbourg,          France      (MC-srDFT)
  Bin Gao,                     UiT The Arctic U. of NorwayNorway      (Gen1Int library)
  Andre S. P. Gomes,           CNRS/Universite de Lille,  France      (Frozen density embedding)
  Christof Haettig,            Ruhr-University Bochum,    Germany     (CC module)
  Kasper Hald,                 Aarhus University,         Denmark     (CC module)
  Asger Halkier,               Aarhus University,         Denmark     (CC module)
  Frederik Beyer Hansen,       University of Copenhagen,  Denmark     (Parallel AO-SOPPA)
  Erik D. Hedegaard,           Univ. of Southern Denmark, Denmark     (Polarizable embedding, QM/MM, and MC-srDFT)
  Hanne Heiberg,               University of Oslo,        Norway      (Geometry analysis, selected one-electron integrals)
  Trygve Helgaker,             University of Oslo,        Norway      (DALTON; ABACUS, ERI, DFT modules, London, and much more)
  Alf Christian Hennum,        University of Oslo,        Norway      (Parity violation)
  Hinne Hettema,               University of Auckland,    New Zealand (Quadratic response in RESPONS; SIRIUS supersymmetry)
  Andreas E. Hillers-Bendtsen, University of Copenhagen,  Denmark     (MP3)
  Eirik Hjertenaes,            NTNU,                      Norway      (Cholesky decomposition)
  Nicolai Machholdt Hoeyer,    Aarhus University,         Denmark     (MP3)
  Pi A. B. Haase,              University of Copenhagen,  Denmark     (Triplet AO-SOPPA)
  Maria Francesca Iozzi,       University of Oslo,        Norway      (RPA)
  Christoph Jacob,             TU Braunschweig            Germany     (Frozen density embedding)
  Brano Jansik,                Technical Univ. of Ostrava Czech Rep.  (DFT cubic response)
  Hans Joergen Aa. Jensen,     Univ. of Southern Denmark, Denmark     (DALTON; SIRIUS, RESPONS, ABACUS, MC-srDFT, and much more)
  Dan Jonsson,                 UiT The Arctic U. of NorwayNorway      (Cubic response in RESPONS module)
  Poul Joergensen,             Aarhus University,         Denmark     (RESPONS, ABACUS, and CC modules)
  Maciej Kaminski,             University of Warsaw,      Poland      (CPPh in RESPONS)
  Joanna Kauczor,              Linkoeping University,     Sweden      (Complex polarization propagator (CPP) module)
  Sheela Kirpekar,             Univ. of Southern Denmark, Denmark     (Mass-velocity & Darwin integrals)
  Frederik Oersted Kjeldal,    Technical Univ. of Denmark,Denmark     (MP3)
  Erik Kjellgren,              Univ. of Southern Denmark, Denmark     (MC-srDFT)
  Wim Klopper,                 KIT Karlsruhe,             Germany     (R12 code in CC, SIRIUS, and ABACUS modules)
  Stefan Knecht,               ETH Zurich,                Switzerland (Parallel CI and MCSCF, MC-srDFT)
  Rika Kobayashi,              Australian National Univ., Australia   (DIIS in CC, London in MCSCF)
  Henrik Koch,                 NTNU,                      Norway      (CC module, Cholesky decomposition)
  Jacob Kongsted,              Univ. of Southern Denmark, Denmark     (Polarizable embedding, polarizable density embedding, QM/MM)
  Andrea Ligabue,              University of Modena,      Italy       (CTOCD, AOSOPPA)
  Nanna H. List,               Univ. of Southern Denmark, Denmark     (Polarizable embedding)
  Ola B. Lutnaes,              University of Oslo,        Norway      (DFT Hessian)
  Juan I. Melo,                University of Buenos Aires,Argentina   (LRESC, Relativistic Effects on NMR Shieldings)
  Kurt V. Mikkelsen,           University of Copenhagen,  Denmark     (MC-SCRF, QM/MM, and MP3)
  Rolf H. Myhre,               NTNU,                      Norway      (Subsystems and CC3)
  Christian Neiss,             Univ. Erlangen-Nuernberg,  Germany     (CCSD(R12))
  Christian B. Nielsen,        University of Copenhagen,  Denmark     (QM/MM)
  Patrick Norman,              KTH Stockholm,             Sweden      (Cubic response and complex frequency response in RESPONS)
  Jeppe Olsen,                 Aarhus University,         Denmark     (SIRIUS CI/density modules)
  Jogvan Magnus H. Olsen,      Aarhus University,         Denmark     (Polarizable embedding and polarizable density embedding)
  Anders Osted,                Copenhagen University,     Denmark     (QM/MM)
  Martin J. Packer,            University of Sheffield,   UK          (SOPPA)
  Filip Pawlowski,             Kazimierz Wielki UniversityPoland      (CC3)
  Morten N. Pedersen,          Univ. of Southern Denmark, Denmark     (Polarizable embedding)
  Thomas B. Pedersen,          University of Oslo,        Norway      (Cholesky decomposition)
  Patricio F. Provasi,         University of Northeastern,Argentina   (Analysis of coupling constants in localized orbitals)
  Peter Reinholdt,             Univ. of Southern Denmark, Denmark     (Polarizable embedding and polarizable density embedding)
  Zilvinas Rinkevicius,        KTH Stockholm,             Sweden      (open-shell DFT, ESR)
  Elias Rudberg,               KTH Stockholm,             Sweden      (DFT grid and basis info)
  Torgeir A. Ruden,            University of Oslo,        Norway      (Numerical derivatives in ABACUS)
  Kenneth Ruud,                UiT The Arctic U. of NorwayNorway      (DALTON; ABACUS magnetic properties and much more)
  Pawel Salek,                 KTH Stockholm,             Sweden      (DALTON; DFT code)
  Claire C. M. Samson,         University of Karlsruhe    Germany     (Boys localization, r12 integrals in ERI)
  Alfredo Sanchez de Meras,    University of Valencia,    Spain       (CC module, Cholesky decomposition)
  Trond Saue,                  Paul Sabatier University,  France      (direct Fock matrix construction)
  Stephan P. A. Sauer,         University of Copenhagen,  Denmark     (SOPPA(CCSD), SOPPA prop., AOSOPPA, vibrational g-factors)
  Bernd Schimmelpfennig,       Forschungszentrum KarlsruheGermany     (AMFI module)
  Anna K. Schnack-Petersen,    University of Copenhagen,  Denmark     (RPA(D) and HRPA(D) properties in AOSOPPA)
  Kristian Sneskov,            Aarhus University,         Denmark     (Polarizable embedding, QM/MM)
  Arnfinn H. Steindal,         UiT The Arctic U. of NorwayNorway      (parallel QM/MM, polarizable embedding)
  Casper Steinmann,            Aalborg University,        Denmark     (QFIT, polarizable embedding)
  K. O. Sylvester-Hvid,        University of Copenhagen,  Denmark     (MC-SCRF)
  Peter R. Taylor,             VLSCI/Univ. of Melbourne,  Australia   (Symmetry handling ABACUS, integral transformation)
  Andrew M. Teale,             University of Nottingham,  England     (DFT-AC, DFT-D)
  David P. Tew,                University of Bristol,     England     (CCSD(R12))
  Julien Toulouse,             Sorbonne Univ.,            France      (MC-srDFT)
  Olav Vahtras,                KTH Stockholm,             Sweden      (Triplet response, spin-orbit, ESR, TDDFT, open-shell DFT)
  Lucas Visscher,              Vrije Universiteit AmsterdaNetherlands (Frozen density embedding)
  David J. Wilson,             La Trobe University,       Australia   (DFT Hessian and DFT magnetizabilities)
  Luna Zamok,                  University of Copenhagen,  Denmark     (Block Lanczos RPA solver in SOPPA module)
  Hans Agren,                  KTH Stockholm,             Sweden      (SIRIUS module, RESPONS, MC-SCRF solvation)
 --------------------------------------------------------------------------------

     Date and time (Linux)  : Tue Mar 26 12:39:52 2024
     Host name              : node103                                 

 * Work memory size             :    64000000 =  488.28 megabytes.

 * Directories for basis set searches:
   1) /home1/s4925076/Sample_inputs_dalton2024_updated/ex3/enol_saddle
   2) /home3/hb-qchav/Dalton/basis


Compilation information
-----------------------

 Who compiled             | p256146
 Host                     | login1
 System                   | Linux-4.18.0-425.13.1.el8_7.x86_64
 CMake generator          | Unix Makefiles
 Processor                | x86_64
 64-bit integers          | OFF
 MPI                      | ON
 Fortran compiler         | /cvmfs/hpc.rug.nl/versions/2023.01/rocky8/x86_64/a
                          | md/zen3/software/impi/2021.7.1-intel-compilers-202
                          | 2.2.1/mpi/2021.7.1/bin/mpiifort
 Fortran compiler version | unknown
 C compiler               | /cvmfs/hpc.rug.nl/versions/2023.01/rocky8/x86_64/a
                          | md/zen3/software/impi/2021.7.1-intel-compilers-202
                          | 2.2.1/mpi/2021.7.1/bin/mpiicc
 C compiler version       | unknown
 C++ compiler             | /cvmfs/hpc.rug.nl/versions/2023.01/rocky8/x86_64/a
                          | md/zen3/software/impi/2021.7.1-intel-compilers-202
                          | 2.2.1/mpi/2021.7.1/bin/mpiicpc
 C++ compiler version     | unknown
 BLAS                     | /cvmfs/hpc.rug.nl/versions/2023.01/rocky8/x86_64/a
                          | md/zen3/software/imkl/2022.2.1/mkl/2022.2.1/lib/in
                          | tel64/libmkl_intel_lp64.so;/cvmfs/hpc.rug.nl/versi
                          | ons/2023.01/rocky8/x86_64/amd/zen3/software/imkl/2
                          | 022.2.1/mkl/2022.2.1/lib/intel64/libmkl_sequential
                          | .so;/cvmfs/hpc.rug.nl/versions/2023.01/rocky8/x86_
                          | 64/amd/zen3/software/imkl/2022.2.1/mkl/2022.2.1/li
                          | b/intel64/libmkl_core.so;/usr/lib64/libpthread.so;
                          | /usr/lib64/libm.so
 LAPACK                   | /cvmfs/hpc.rug.nl/versions/2023.01/rocky8/x86_64/a
                          | md/zen3/software/imkl/2022.2.1/mkl/2022.2.1/lib/in
                          | tel64/libmkl_lapack95_lp64.a;/cvmfs/hpc.rug.nl/ver
                          | sions/2023.01/rocky8/x86_64/amd/zen3/software/imkl
                          | /2022.2.1/mkl/2022.2.1/lib/intel64/libmkl_intel_lp
                          | 64.so
 Static linking           | OFF
 Last Git revision        | 4d6ac05be54d7f9c5fe49e0ac32a42491a6c6955
 Git branch               | master
 Configuration time       | 2023-04-05 13:35:07.780405

 * Sequential calculation.


   Content of the .dal input file
 ----------------------------------

**DALTON INPUT
.RUN WAVEFUNCTION
.OPTIMIZE
*OPTIMIZATION
.SADDLE
**WAVE FUNCTION
.HF
**END OF DALTON INPUT


   Content of the .mol file
 ----------------------------

BASIS
6-31G
opt

Atomtypes=3 Nosymmetry Angstrom
Charge=8.0 Atoms=1
O       -2.1027778840            2.7402409835            0.3835688648
Charge=6.0 Atoms=4
C       -1.5200741351            1.6490593214            0.2916935244
C       -0.1255389210            1.4314424954           -0.0914536965
C        0.8858397808            2.3056334256           -0.1971436255
C        0.9356744072            3.8045224236           -0.1038247298
Charge=1.0 Atoms=6
H       -2.0740468801            0.7351289662            0.5143778870
H        1.8432153294            1.8477566212           -0.3860128288
H        0.4394225624            4.3384919791           -0.9408524660
H        1.9584543394            4.1502506020           -0.1342777892
H        0.4808664114            4.1680028113            0.8097581493
H        0.1191449896            0.3907303707           -0.2083632896


       *******************************************************************
       *********** Output from DALTON general input processing ***********
       *******************************************************************

 --------------------------------------------------------------------------------
   Overall default print level:    0
   Print level for DALTON.STAT:    1

    HERMIT 1- and 2-electron integral sections will be executed
    "Old" integral transformation used (limited to max 255 basis functions)
    Wave function sections will be executed (SIRIUS module)
 --------------------------------------------------------------------------------


 Chosen parameters for *OPTIMI :
 -------------------------------

 Saddle point optimization has been requested.
 Default 1st order TS-method will be used:   Bofills update.
 Optimization will be performed in redundant internal coordinates (by default).
 No extra (auxiliary) bonds will be added.
 Initial Hessian will be calculated.
 
 
 Image function method will be used to control step (default).
 The eigenvector corresponding to the lowest non-zero eigenvalue is chosen
 as reaction mode (default).
 Convergence threshold for gradient set to :      1.00D-04
 Convergence threshold for energy set to   :      1.00D-06
 Convergence threshold for step set to     :      1.00D-04
 Number of convergence criteria set to     :   2


              >>>>>>>>>>>>>>>>>>>>>>>>>>>>>>>>>>>>>>>>>>>>>>>>>>>>>
              >>>>>>>>>> 1st Order Geometry Optimization >>>>>>>>>>
              >>>>>>>>>>>>>>>>>>>>>>>>>>>>>>>>>>>>>>>>>>>>>>>>>>>>>


 Reading .mol file to determine number of atoms for parallel runs.


   ****************************************************************************
   *************** Output of molecule and basis set information ***************
   ****************************************************************************


    The two title cards from your ".mol" input:
    --------------------------------------------------------------------------------
 1: opt
 2: 
    --------------------------------------------------------------------------------

  Coordinates are entered in Angstrom and converted to atomic units.
          - Conversion factor : 1 bohr = 0.52917721 A

  Atomic type no.    1
  --------------------
  Nuclear charge:   8.00000
  Number of symmetry independent centers:    1
  Number of basis sets to read;    2
  Basis set file used for this atomic type with Z =   8 :
     "/home3/hb-qchav/Dalton/basis/6-31G"

  Info about the basis set file: your basis has no documentation.
  Basis set: 6-31G                                                                           

  Atomic type no.    2
  --------------------
  Nuclear charge:   6.00000
  Number of symmetry independent centers:    4
  Number of basis sets to read;    2
  Basis set file used for this atomic type with Z =   6 :
     "/home3/hb-qchav/Dalton/basis/6-31G"

  Info about the basis set file: your basis has no documentation.
  Basis set: 6-31G                                                                           

  Atomic type no.    3
  --------------------
  Nuclear charge:   1.00000
  Number of symmetry independent centers:    6
  Number of basis sets to read;    2
  Basis set file used for this atomic type with Z =   1 :
     "/home3/hb-qchav/Dalton/basis/6-31G"

  Info about the basis set file: your basis has no documentation.
  Basis set: 6-31G                                                                           


                         SYMGRP: Point group information
                         -------------------------------

@    Point group: C1 


                                 Isotopic Masses
                                 ---------------

                           O          15.994915
                           C          12.000000
                           C          12.000000
                           C          12.000000
                           C          12.000000
                           H           1.007825
                           H           1.007825
                           H           1.007825
                           H           1.007825
                           H           1.007825
                           H           1.007825

                       Total mass:    70.041865 amu
                       Natural abundance:  95.357 %

 Center-of-mass coordinates (a.u.):   -0.775248    4.583097    0.123523
 Center-of-mass coordinates (Angs):   -0.410244    2.425271    0.065366


  Atoms and basis sets
  --------------------

  Number of atom types :    3
  Total number of atoms:   11

  Basis set used is "6-31G" from the basis set library.

  label    atoms   charge   prim   cont     basis
  ----------------------------------------------------------------------
  O           1    8.0000    22     9      [10s4p|3s2p]                                       
  C           4    6.0000    22     9      [10s4p|3s2p]                                       
  H           6    1.0000     4     2      [4s|2s]                                            
  ----------------------------------------------------------------------
  total:     11   38.0000   134    57
  ----------------------------------------------------------------------

  Threshold for neglecting AO integrals:  1.00D-12


  Cartesian Coordinates (a.u.)
  ----------------------------

  Total number of coordinates:   33
  O       :     1  x  -3.9736743025    2  y   5.1783049753    3  z   0.7248401045
  C       :     4  x  -2.8725238050    5  y   3.1162704813    6  z   0.5512208736
  C       :     7  x  -0.2372341787    8  y   2.7050342800    9  z  -0.1728224395
  C       :    10  x   1.6739945763   11  y   4.3570157190   12  z  -0.3725474595
  C       :    13  x   1.7681683718   14  y   7.1895054170   15  z  -0.1962003043
  H       :    16  x  -3.9193805738   17  y   1.3891924127   18  z   0.9720333312
  H       :    19  x   3.4831721620   20  y   3.4917539597   21  z  -0.7294585272
  H       :    22  x   0.8303882961   23  y   8.1985616360   24  z  -1.7779534848
  H       :    25  x   3.7009423298   26  y   7.8428369879   27  z  -0.2537482463
  H       :    28  x   0.9087058203   29  y   7.8763838016   30  z   1.5302211297
  H       :    31  x   0.2251513995   32  y   0.7383733893   33  z  -0.3937495518


   Interatomic separations (in Angstrom):
   --------------------------------------

            O           C           C           C           C           H     
            ------      ------      ------      ------      ------      ------
 O     :    0.000000
 C     :    1.240428    0.000000
 C     :    2.418279    1.462494    0.000000
 C     :    3.075377    2.541353    1.340995    0.000000
 C     :    3.256139    3.291376    2.599584    1.502618    0.000000
 H     :    2.009580    1.091670    2.156054    3.425445    4.343014    0.000000
 H     :    4.118209    3.436638    2.033734    1.077910    2.175360    4.170562
 H     :    3.281963    3.548499    3.080843    2.210182    1.109957    4.628115
 H     :    4.330115    4.305528    3.425898    2.134729    1.080062    5.323991
 H     :    2.982509    3.258409    2.944261    2.155522    1.083329    4.289459
 H     :    3.287480    2.126144    1.075463    2.062717    3.511641    2.334750

            H           H           H           H           H     
            ------      ------      ------      ------      ------
 H     :    0.000000
 H     :    2.912429    0.000000
 H     :    2.319079    1.730160    0.000000
 H     :    2.944385    1.759381    1.753507    0.000000
 H     :    2.264267    4.027895    4.185993    3.928766    0.000000


  Max    interatomic separation is    5.3240 Angstrom (   10.0609 Bohr)
  between atoms    9 and    6, "H     " and "H     ".

  Min HX interatomic separation is    1.0755 Angstrom (    2.0323 Bohr)

  Min YX interatomic separation is    1.2404 Angstrom (    2.3441 Bohr)


  Bond distances (Angstrom):
  --------------------------

                  atom 1     atom 2       distance
                  ------     ------       --------
  bond distance:  C          O            1.240428
  bond distance:  C          C            1.462494
  bond distance:  C          C            1.340995
  bond distance:  C          C            1.502618
  bond distance:  H          C            1.091670
  bond distance:  H          C            1.077910
  bond distance:  H          C            1.109957
  bond distance:  H          C            1.080062
  bond distance:  H          C            1.083329
  bond distance:  H          C            1.075463


  Bond angles (degrees):
  ----------------------

                  atom 1     atom 2     atom 3         angle
                  ------     ------     ------         -----
  bond angle:     O          C          C            126.743
  bond angle:     O          C          H            118.879
  bond angle:     C          C          H            114.377
  bond angle:     C          C          C            130.001
  bond angle:     C          C          H            112.918
  bond angle:     C          C          H            116.787
  bond angle:     C          C          C            132.098
  bond angle:     C          C          H            114.001
  bond angle:     C          C          H            113.901
  bond angle:     C          C          H            114.722
  bond angle:     C          C          H            110.424
  bond angle:     C          C          H            111.909
  bond angle:     H          C          H            104.367
  bond angle:     H          C          H            106.669
  bond angle:     H          C          H            108.297




 Principal moments of inertia (u*A**2) and principal axes
 --------------------------------------------------------

   IA      52.836459          0.923833    0.346557   -0.162575
   IB     134.283600         -0.330807    0.936484    0.116470
   IC     183.779018          0.192613   -0.053818    0.979798


 Rotational constants
 --------------------

               A                   B                   C

           9564.9673           3763.5199           2749.9277 MHz
            0.319053            0.125538            0.091728 cm-1


@  Nuclear repulsion energy :  157.076295938972 Hartree


                     .---------------------------------------.
                     | Starting in Integral Section (HERMIT) |
                     `---------------------------------------'



 ***************************************************************************************
 ****************** Output from **INTEGRALS input processing (HERMIT) ******************
 ***************************************************************************************


 - Using defaults, no **INTEGRALS input found

 Default print level:        1

 Calculation of one- and two-electron Hamiltonian integrals.

 Center of mass  (bohr):     -0.775248159585      4.583097390446      0.123523288913
 Operator center (bohr):      0.000000000000      0.000000000000      0.000000000000
 Gauge origin    (bohr):      0.000000000000      0.000000000000      0.000000000000
 Dipole origin   (bohr):      0.000000000000      0.000000000000      0.000000000000

Calculation of 2-electron integrals are postponed until they are needed.


     ************************************************************************
     ************************** Output from HERINT **************************
     ************************************************************************



                      Nuclear contribution to dipole moments
                      --------------------------------------

                 au               Debye          C m (/(10**-30)

      x    -24.56598520       -62.44050218      -208.27909612
      y    175.17049737       445.23896492      1485.15732480
      z      4.00396951        10.17707471        33.94706719


  Total CPU  time used in HERMIT:   0.03 seconds
  Total wall time used in HERMIT:   0.03 seconds


                        .----------------------------------.
                        | End of Integral Section (HERMIT) |
                        `----------------------------------'



                   .--------------------------------------------.
                   | Starting in Wave Function Section (SIRIUS) |
                   `--------------------------------------------'


 *** Output from Huckel module :

     Using EWMO model:          T
     Using EHT  model:          F
     Number of Huckel orbitals each symmetry:   31

 EWMO - Energy Weighted Maximum Overlap - is a Huckel type method,
        which normally is better than Extended Huckel Theory.
 Reference: Linderberg and Ohrn, Propagators in Quantum Chemistry (Wiley, 1973)

 Huckel EWMO eigenvalues for symmetry :  1
          -20.684409     -11.358336     -11.352872     -11.350358     -11.345375
           -1.775225      -1.570611      -1.354081      -1.043848      -0.907400
           -0.798483      -0.769457      -0.674915      -0.655700      -0.581671
           -0.540891      -0.498157      -0.460273      -0.419711      -0.315680
           -0.215692      -0.165199      -0.138119      -0.132768      -0.124369
           -0.119200      -0.116288      -0.114122      -0.106197      -0.091801
           -0.083493

 **********************************************************************
 *SIRIUS* a direct, restricted step, second order MCSCF program       *
 **********************************************************************

 
     Date and time (Linux)  : Tue Mar 26 12:39:52 2024
     Host name              : node103                                 

 Title lines from ".mol" input file:
     opt
     

 Print level on unit LUPRI =   2 is   0
 Print level on unit LUW4  =   2 is   5

@    Restricted, closed shell Hartree-Fock calculation.

@    Time-dependent Hartree-Fock calculation (random phase approximation).

 Initial molecular orbitals are obtained according to
 ".MOSTART EWMO  " input option

     Wave function specification
     ============================
@    Wave function type        --- HF ---
@    Number of closed shell electrons          38
@    Number of electrons in active shells       0
@    Total charge of the molecule               0

@    Spin multiplicity and 2 M_S                1         0
@    Total number of symmetries                 1 (point group: C1 )
@    Reference state symmetry                   1 (irrep name : A  )

     Orbital specifications
     ======================
@    Abelian symmetry species          All |    1
@                                          |  A  
                                       --- |  ---
@    Occupied SCF orbitals              19 |   19
@    Secondary orbitals                 38 |   38
@    Total number of orbitals           57 |   57
@    Number of basis functions          57 |   57

     Optimization information
     ========================
@    Number of configurations                 1
@    Number of orbital rotations            722
     ------------------------------------------
@    Total number of variables              723

     Maximum number of Fock   iterations      0
     Maximum number of DIIS   iterations     60
     Maximum number of QC-SCF iterations     60
     Threshold for SCF convergence     1.00D-05


 ***********************************************
 ***** DIIS acceleration of SCF iterations *****
 ***********************************************

 C1-DIIS algorithm; max error vectors =    8

 Iter      Total energy        Error norm    Delta(E)  DIIS dim.
 -----------------------------------------------------------------------------

Calculating AOSUPINT

---> (Re)generating AOTWOINT


     ************************************************************************
     ************************** Output from HERINT **************************
     ************************************************************************


 Threshold for neglecting two-electron integrals:  1.00D-12
 HERMIT - Number of two-electron integrals written:     1299738 ( 95.1% )
 HERMIT - Megabytes written:                             14.888

  Total CPU  time used in TWOINT:   0.17 seconds
  Total wall time used in TWOINT:   0.17 seconds
  Time used in TWOINT     is       0.17 seconds
  CPU  time used in MAKE_AOTWOINT is   0.17 seconds
  WALL time used in MAKE_AOTWOINT is   0.17 seconds
     (Precalculated AO two-electron integrals are transformed to P-supermatrix elements.
      Threshold for discarding integrals :  1.00D-12 )

@  1    -228.790454874        3.46730D+00   -2.29D+02    1
      Virial theorem: -V/T =      2.008420
@    MULPOP   O      -1.04; C       0.85; C       0.22; C       0.52; C       0.35; H      -0.21; H      -0.19; H      -0.10; H      -0.13; H      -0.10; 
@             H      -0.17; 
   1  Level shift: doubly occupied orbital energies shifted by -2.00D-01
 -----------------------------------------------------------------------------
@  2    -229.533980531        1.69145D+00   -7.44D-01    2
      Virial theorem: -V/T =      2.003015
@    MULPOP   O      -0.01; C      -0.10; C      -0.30; C      -0.16; C      -0.47; H       0.10; H       0.18; H       0.22; H       0.17; H       0.21; 
@             H       0.17; 
   2  Level shift: doubly occupied orbital energies shifted by -1.00D-01
 -----------------------------------------------------------------------------
@  3    -229.681993093        3.64719D-01   -1.48D-01    3
      Virial theorem: -V/T =      1.998268
@    MULPOP   O      -0.55; C       0.33; C      -0.24; C      -0.09; C      -0.52; H       0.14; H       0.18; H       0.21; H       0.17; H       0.21; 
@             H       0.17; 
   3  Level shift: doubly occupied orbital energies shifted by -2.50D-02
 -----------------------------------------------------------------------------
@  4    -229.691339451        1.05910D-01   -9.35D-03    4
      Virial theorem: -V/T =      2.000817
@    MULPOP   O      -0.53; C       0.30; C      -0.28; C      -0.05; C      -0.49; H       0.15; H       0.17; H       0.20; H       0.16; H       0.20; 
@             H       0.17; 
   4  Level shift: doubly occupied orbital energies shifted by -1.25D-02
 -----------------------------------------------------------------------------
@  5    -229.692552592        2.92898D-02   -1.21D-03    5
      Virial theorem: -V/T =      1.999982
@    MULPOP   O      -0.55; C       0.32; C      -0.28; C      -0.09; C      -0.50; H       0.16; H       0.19; H       0.20; H       0.16; H       0.21; 
@             H       0.18; 
 -----------------------------------------------------------------------------
@  6    -229.692684452        1.05687D-02   -1.32D-04    6
      Virial theorem: -V/T =      1.999942
@    MULPOP   O      -0.54; C       0.31; C      -0.29; C      -0.09; C      -0.49; H       0.16; H       0.19; H       0.20; H       0.16; H       0.21; 
@             H       0.18; 
 -----------------------------------------------------------------------------
@  7    -229.692708997        4.06329D-03   -2.45D-05    7
      Virial theorem: -V/T =      1.999953
@    MULPOP   O      -0.54; C       0.32; C      -0.28; C      -0.09; C      -0.49; H       0.16; H       0.19; H       0.20; H       0.16; H       0.20; 
@             H       0.18; 
 -----------------------------------------------------------------------------
@  8    -229.692712702        1.56184D-03   -3.71D-06    8
      Virial theorem: -V/T =      1.999951
@    MULPOP   O      -0.54; C       0.31; C      -0.28; C      -0.09; C      -0.49; H       0.16; H       0.19; H       0.20; H       0.16; H       0.20; 
@             H       0.18; 
 -----------------------------------------------------------------------------
@  9    -229.692713573        8.23551D-04   -8.70D-07    8
      Virial theorem: -V/T =      1.999951
@    MULPOP   O      -0.54; C       0.31; C      -0.28; C      -0.09; C      -0.49; H       0.16; H       0.19; H       0.20; H       0.16; H       0.20; 
@             H       0.18; 
 -----------------------------------------------------------------------------
@ 10    -229.692713889        3.61044D-04   -3.16D-07    8
      Virial theorem: -V/T =      1.999951
@    MULPOP   O      -0.54; C       0.31; C      -0.28; C      -0.09; C      -0.49; H       0.16; H       0.19; H       0.20; H       0.16; H       0.20; 
@             H       0.18; 
 -----------------------------------------------------------------------------
@ 11    -229.692713962        1.07708D-04   -7.25D-08    8
      Virial theorem: -V/T =      1.999951
@    MULPOP   O      -0.54; C       0.31; C      -0.28; C      -0.09; C      -0.49; H       0.16; H       0.19; H       0.20; H       0.16; H       0.20; 
@             H       0.18; 
 -----------------------------------------------------------------------------
@ 12    -229.692713965        3.99448D-05   -3.58D-09    8
      Virial theorem: -V/T =      1.999951
@    MULPOP   O      -0.54; C       0.31; C      -0.28; C      -0.09; C      -0.49; H       0.16; H       0.19; H       0.20; H       0.16; H       0.20; 
@             H       0.18; 
 -----------------------------------------------------------------------------
@ 13    -229.692713966        1.53151D-05   -3.73D-10    8
      Virial theorem: -V/T =      1.999951
@    MULPOP   O      -0.54; C       0.31; C      -0.28; C      -0.09; C      -0.49; H       0.16; H       0.19; H       0.20; H       0.16; H       0.20; 
@             H       0.18; 
 -----------------------------------------------------------------------------
@ 14    -229.692713966        5.07708D-06   -4.52D-11    8

@ *** DIIS converged in  14 iterations !
@     Converged SCF energy, gradient:   -229.692713965665    5.08D-06
    - total time used in SIRFCK :              0.00 seconds


 *** SCF orbital energy analysis ***

 Only the 20 lowest virtual orbital energies printed in each symmetry.

 Number of electrons        :   38
 Closed shell orbitals      :   19

 Sym       Hartree-Fock orbital energies

1 A     -20.56380842   -11.34108294   -11.27987385   -11.24572364   -11.23496245
         -1.38557053    -1.09882821    -0.98510932    -0.87551981    -0.74121853
         -0.68778766    -0.63318559    -0.60997829    -0.57651115    -0.53808429
         -0.52344350    -0.51706343    -0.41948454    -0.37365642     0.08062136
          0.22212632     0.24042045     0.26501353     0.28246396     0.32369461
          0.33845818     0.34788197     0.39791546     0.43622484     0.54352771
          0.57233836     0.72523623     0.73736696     0.76539845     0.80689025
          0.82649554     0.85156170     0.86217438     0.93444679

    E(LUMO) :     0.08062136 au (symmetry 1)
  - E(HOMO) :    -0.37365642 au (symmetry 1)
  ------------------------------------------
    gap     :     0.45427778 au

 --- Writing SIRIFC interface file

--------------------------------------------------------------------------------


     .--------------------------------------------------.
     | HF-SCF KT IPs [a.u. & eV] from Koopmans' theorem |
     `--------------------------------------------------'


     HF-SCF KT symmetry 1 ( A  ) in point group C1  -- 19 principal poles with pole strength 1

   ============  ============  ============  ============  ============
      20.563808     11.341083     11.279874     11.245724     11.234962
     559.569692    308.606565    306.940981    306.011707    305.718880
   ============  ============  ============  ============  ============

   ============  ============  ============  ============  ============
       1.385571      1.098828      0.985109      0.875520      0.741219
      37.703292     29.900637     26.806188     23.824106     20.169582
   ============  ============  ============  ============  ============

   ============  ============  ============  ============  ============
       0.687788      0.633186      0.609978      0.576511      0.538084
      18.715654     17.229856     16.598354     15.687666     14.642018
   ============  ============  ============  ============  ============

   ============  ============  ============  ============
       0.523444      0.517063      0.419485      0.373656
      14.243622     14.070012     11.414755     10.167708
   ============  ============  ============  ============

@ Summary of HF-SCF KT ionization potentials [eV]:

@ Symmetry 1 (A  ) :   559.570     308.607     306.941     306.012     305.719
@                       37.703      29.901      26.806      23.824      20.170
@                       18.716      17.230      16.598      15.688      14.642
@                       14.244      14.070      11.415      10.168

  === End of HF-SCF KT output ===
--------------------------------------------------------------------------------


 CPU and wall time for SCF :       0.275       0.644


                       .-----------------------------------.
                       | --- Final results from SIRIUS --- |
                       `-----------------------------------'


@    Spin multiplicity:           1
@    Spatial symmetry:            1 ( irrep  A   in C1  )
@    Total charge of molecule:    0

@    Final HF energy:            -229.692713965665                 
@    Nuclear repulsion:           157.076295938972
@    Electronic energy:          -386.769009904637

@    Final gradient norm:           0.000005077077

 
     Date and time (Linux)  : Tue Mar 26 12:39:53 2024
     Host name              : node103                                 

File label for MO orbitals:  26Mar24   FOCKDIIS

 (Only coefficients > 0.0100 are printed.)

 Molecular orbitals for symmetry species 1  (A  )
 ------------------------------------------------

    Orbital        10       11       12       13       14       15       16
   1 O   :1s    -0.0404  -0.0488  -0.0166  -0.0584   0.0059  -0.0128  -0.0040
   2 O   :1s     0.0944   0.1107   0.0366   0.1317  -0.0130   0.0292   0.0070
   3 O   :1s     0.1272   0.1834   0.0720   0.2323  -0.0243   0.0498   0.0267
   4 O   :2px    0.0737  -0.2103   0.1348  -0.2301   0.0637  -0.0780   0.1452
   5 O   :2py    0.1803   0.1007   0.1703   0.3386  -0.0274   0.1052   0.1698
   6 O   :2pz   -0.0336   0.0467  -0.0674   0.0587   0.0692   0.1224   0.1150
   7 O   :2px    0.0337  -0.1124   0.0780  -0.1289   0.0394  -0.0463   0.1037
   8 O   :2py    0.0913   0.0485   0.0920   0.1944  -0.0159   0.0665   0.1122
   9 O   :2pz   -0.0159   0.0246  -0.0394   0.0340   0.0493   0.0837   0.0823
  10 C   :1s     0.0652   0.0444  -0.0054   0.0193  -0.0016  -0.0038  -0.0205
  11 C   :1s    -0.1468  -0.1132   0.0058  -0.0724   0.0061   0.0028   0.0352
  12 C   :1s    -0.1435  -0.0929   0.0235   0.0158  -0.0033   0.0221   0.0931
  13 C   :2px    0.2256  -0.1002   0.2500   0.1007   0.0174   0.0696   0.1168
  14 C   :2py    0.1259  -0.1701   0.0385  -0.3082   0.0445  -0.0945  -0.0675
  15 C   :2pz   -0.0745   0.0301  -0.0918   0.0072   0.0711   0.0784   0.1006
  16 C   :2px    0.0693  -0.0628   0.1103  -0.0158   0.0208  -0.0071   0.0731
  17 C   :2py    0.0997  -0.0268   0.0387  -0.0426   0.0128  -0.0225  -0.0142
  18 C   :2pz   -0.0261   0.0157  -0.0434   0.0164   0.0379   0.0604   0.0652
  19 C   :1s    -0.0751  -0.0332   0.0108   0.0087   0.0028  -0.0164   0.0275
  20 C   :1s     0.1545   0.0610  -0.0221  -0.0170  -0.0073   0.0354  -0.0560
  21 C   :1s     0.1421   0.0880  -0.0095  -0.0195  -0.0051   0.0532  -0.1342
  22 C   :2px   -0.0305   0.1035  -0.2468  -0.0905   0.0188   0.0455  -0.0397
  23 C   :2py   -0.0005  -0.2906  -0.1304   0.0580  -0.0459   0.2491   0.0684
  24 C   :2pz    0.0028  -0.0444   0.0354   0.0436   0.0911   0.0639   0.0720
  25 C   :2px   -0.0250   0.0054  -0.0644  -0.0630   0.0186  -0.0077  -0.0212
  26 C   :2py   -0.0475  -0.1340  -0.0390   0.0014  -0.0193   0.1373   0.0594
  27 C   :2pz    0.0020  -0.0094   0.0069   0.0266   0.0585   0.0423   0.0373
  28 C   :1s     0.0704   0.0391   0.0023  -0.0272   0.0052   0.0027   0.0015
  29 C   :1s    -0.1457  -0.0834  -0.0071   0.0577  -0.0125   0.0023  -0.0072
  30 C   :1s    -0.1396  -0.0698   0.0115   0.1087  -0.0156  -0.0553   0.0132
  31 C   :2px   -0.1971   0.1093   0.2942  -0.0581   0.0663  -0.1282   0.1673
  32 C   :2py   -0.0218  -0.1157   0.1160   0.1791  -0.0288  -0.1771  -0.2322
  33 C   :2pz    0.0302  -0.0286  -0.0440   0.0408   0.1311   0.0386  -0.0303
  34 C   :2px   -0.0939   0.0209   0.1247  -0.0336   0.0304  -0.0272   0.1010
  35 C   :2py   -0.0107  -0.0690   0.0423   0.0669  -0.0122  -0.0843  -0.1422
  36 C   :2pz    0.0130  -0.0103  -0.0195   0.0181   0.0659   0.0206  -0.0102
  37 C   :1s    -0.0297  -0.0191   0.0107   0.0046   0.0003   0.0090   0.0118
  38 C   :1s     0.0552   0.0314  -0.0200  -0.0029   0.0003  -0.0219  -0.0296
  39 C   :1s     0.0842   0.0753  -0.0507  -0.0410  -0.0048  -0.0107  -0.0080
  40 C   :2px   -0.0598   0.0702   0.1820  -0.1012   0.0457   0.3130  -0.2061
  41 C   :2py    0.1203   0.1398  -0.0976  -0.1847  -0.0097   0.1416   0.2320
  42 C   :2pz    0.0218  -0.0082  -0.0509   0.0464   0.4013  -0.0377  -0.0235
  43 C   :2px   -0.0158   0.0290   0.0654  -0.0514   0.0236   0.1596  -0.1294
  44 C   :2py    0.0379   0.0400  -0.0452  -0.0767  -0.0092   0.0525   0.1026
  45 C   :2pz    0.0063  -0.0066  -0.0230   0.0240   0.2194  -0.0267  -0.0242
  46 H   :1s    -0.1815   0.0545  -0.0950   0.0988  -0.0174   0.0425   0.0484
  47 H   :1s    -0.0785   0.0436  -0.0513   0.0793  -0.0121   0.0260   0.0439
  48 H   :1s    -0.1609   0.0446   0.1371  -0.0540   0.0262  -0.0380   0.1839
  49 H   :1s    -0.0785   0.0356   0.0924  -0.0433   0.0217  -0.0378   0.1381
  50 H   :1s     0.0592   0.0377  -0.0636  -0.0492  -0.2146  -0.0466   0.1411
  51 H   :1s     0.0338   0.0211  -0.0396  -0.0290  -0.1583  -0.0403   0.1154
  52 H   :1s     0.0146   0.0805   0.0798  -0.1044   0.0214   0.2349  -0.1045
  53 H   :1s     0.0009   0.0513   0.0702  -0.0710   0.0191   0.2007  -0.0787
  54 H   :1s     0.0704   0.0211  -0.1006   0.0094   0.2073  -0.0925   0.0896
  55 H   :1s     0.0398   0.0139  -0.0590   0.0160   0.1471  -0.0611   0.0877
  56 H   :1s     0.0683   0.2112   0.0274  -0.0620   0.0222  -0.1515  -0.0998
  57 H   :1s     0.0150   0.1260   0.0208  -0.0462   0.0170  -0.1156  -0.0648

    Orbital        17       18       19       20       21       22       23
   1 O   :1s    -0.0046   0.0004  -0.0011   0.0014  -0.0110  -0.0010   0.0098
   2 O   :1s     0.0094  -0.0065   0.0026   0.0003   0.0275  -0.0051  -0.0173
   3 O   :1s     0.0254   0.0235   0.0086  -0.0365   0.1128   0.0556  -0.1642
   4 O   :2px   -0.0956   0.4573  -0.0506   0.0824   0.0733   0.0513   0.0078
   5 O   :2py    0.0734   0.2578  -0.0231   0.0262   0.0247  -0.0026  -0.0034
   6 O   :2pz   -0.3798  -0.1459  -0.2383   0.2794   0.0391   0.2135   0.0103
   7 O   :2px   -0.0645   0.3569  -0.0423   0.0980   0.1061   0.0935   0.0310
   8 O   :2py    0.0466   0.1949  -0.0200   0.0408   0.0064  -0.0132   0.0972
   9 O   :2pz   -0.2724  -0.1130  -0.1974   0.3481   0.0571   0.3362   0.0152
  10 C   :1s    -0.0103   0.0027   0.0021   0.0026  -0.0366   0.0054  -0.0197
  11 C   :1s     0.0169  -0.0282  -0.0034  -0.0071   0.0632  -0.0009  -0.0085
  12 C   :1s     0.0490   0.0960  -0.0252  -0.0150   0.4673  -0.1399   0.5067
  13 C   :2px   -0.0398  -0.1761  -0.0143  -0.0921  -0.0302  -0.0753  -0.0953
  14 C   :2py   -0.0864  -0.0828   0.0067  -0.0168  -0.1014  -0.0101  -0.0751
  15 C   :2pz   -0.2820   0.0622  -0.0300  -0.2735  -0.0674  -0.3269  -0.0157
  16 C   :2px   -0.0433   0.0625  -0.0185  -0.1257  -0.0639  -0.1357  -0.2397
  17 C   :2py   -0.0388  -0.0482  -0.0048   0.0181  -0.3157  -0.0524  -0.0463
  18 C   :2pz   -0.1847  -0.0112  -0.0525  -0.3484  -0.0977  -0.6203   0.0075
  19 C   :1s     0.0065   0.0292   0.0031  -0.0003  -0.0312   0.0159  -0.0222
  20 C   :1s    -0.0142  -0.0535  -0.0119   0.0068   0.0442  -0.0075  -0.0139
  21 C   :1s    -0.0269  -0.2248   0.0148  -0.0499   0.4594  -0.2907   0.6511
  22 C   :2px   -0.0308   0.2216   0.0840  -0.0344   0.0857   0.0499   0.0409
  23 C   :2py    0.1215  -0.0569  -0.0378   0.0167  -0.1489   0.0188  -0.1020
  24 C   :2pz   -0.1017  -0.0569   0.3552  -0.1630   0.0414   0.2851   0.0252
  25 C   :2px   -0.0199   0.2153   0.0771  -0.1260   0.1594   0.0610   0.1869
  26 C   :2py    0.0933  -0.0452  -0.0183  -0.0253  -0.4610   0.0839  -0.3605
  27 C   :2pz   -0.0518  -0.0586   0.3194  -0.2945   0.0682   0.6410   0.0310
  28 C   :1s    -0.0017  -0.0083  -0.0016  -0.0050  -0.0482   0.0104  -0.0142
  29 C   :1s     0.0071   0.0162   0.0044   0.0048   0.0682   0.0088  -0.0413
  30 C   :1s    -0.0195  -0.0101  -0.0132   0.1145   0.7792  -0.2356   0.3233
  31 C   :2px    0.0147  -0.0998   0.0438   0.0452   0.1322  -0.0950   0.0195
  32 C   :2py   -0.1503   0.0143  -0.0133  -0.0264  -0.0914   0.0137   0.0144
  33 C   :2pz   -0.0491   0.0094   0.3140   0.3221  -0.0758  -0.1623  -0.0336
  34 C   :2px    0.0359  -0.0822   0.0464   0.0476   0.4078  -0.2358   0.0581
  35 C   :2py   -0.0799   0.0647  -0.0076  -0.0765  -0.2901   0.0092   0.3948
  36 C   :2pz   -0.0499   0.0159   0.2531   0.5220  -0.1815  -0.3117  -0.0602
  37 C   :1s     0.0070  -0.0024  -0.0011   0.0036  -0.0551  -0.0033   0.1281
  38 C   :1s    -0.0182   0.0048   0.0016  -0.0043   0.0428   0.0025  -0.0646
  39 C   :1s     0.0005  -0.0302   0.0110  -0.0335   0.9233   0.0614  -2.5550
  40 C   :2px    0.0037   0.0633  -0.0211   0.0019   0.0810  -0.0504   0.0150
  41 C   :2py    0.1287  -0.0520  -0.0021   0.0026   0.0189   0.0071  -0.1314
  42 C   :2pz    0.1257  -0.0113  -0.1062  -0.0138  -0.0194  -0.0873  -0.0063
  43 C   :2px   -0.0095   0.0176  -0.0150   0.0055   0.2592  -0.1619   0.1068
  44 C   :2py    0.0548  -0.0318   0.0033  -0.0119   0.1806   0.0157  -0.4278
  45 C   :2pz    0.0887  -0.0106  -0.0882   0.0225  -0.0893  -0.4849  -0.0531
  46 H   :1s     0.0419   0.1827  -0.0081   0.0098  -0.0205  -0.0078  -0.0105
  47 H   :1s     0.0316   0.2311  -0.0084   0.0328  -0.6424   0.0802  -0.5208
  48 H   :1s     0.0661  -0.0743  -0.0091  -0.0014  -0.0432   0.0095  -0.0437
  49 H   :1s     0.0435  -0.0579  -0.0136  -0.0129  -1.1539   0.3427  -0.1761
  50 H   :1s    -0.0358  -0.0323   0.0880   0.0733   0.0010  -0.0779   0.0040
  51 H   :1s    -0.0164  -0.0239   0.0897   0.2122  -0.3322  -0.7352   1.1435
  52 H   :1s     0.0217   0.0403  -0.0163  -0.0089  -0.0340   0.0243  -0.0204
  53 H   :1s     0.0260   0.0552  -0.0220  -0.0088  -0.8291   0.2385   0.9304
  54 H   :1s     0.0940  -0.0370  -0.0755  -0.0645   0.0301   0.0528   0.0240
  55 H   :1s     0.0583  -0.0164  -0.0810  -0.1481  -0.0644   0.4722   1.2499
  56 H   :1s    -0.0948   0.0590   0.0086  -0.0080  -0.0422   0.0023   0.0061
  57 H   :1s    -0.0648   0.0684   0.0099  -0.0217  -0.9887   0.2940  -0.6596

    Orbital        24       25       26       27       28       29
   1 O   :1s    -0.0029  -0.0061  -0.0215   0.0043   0.0533  -0.0712
   2 O   :1s     0.0162   0.0366   0.0166  -0.0235  -0.0801   0.0782
   3 O   :1s    -0.0342  -0.1240   0.4744   0.0416  -0.9514   1.5398
   4 O   :2px   -0.0139   0.0288   0.0267  -0.0418  -0.1015  -0.0128
   5 O   :2py   -0.0598  -0.0654  -0.0284  -0.0002   0.0718  -0.1567
   6 O   :2pz    0.0205  -0.0132   0.0569  -0.0659   0.0375  -0.0147
   7 O   :2px   -0.0931  -0.0348   0.1160  -0.0147  -0.2900   0.1646
   8 O   :2py   -0.1116  -0.0809  -0.1732   0.0093   0.3694  -0.6788
   9 O   :2pz    0.0577  -0.0060   0.0485  -0.0945   0.0753  -0.0360
  10 C   :1s     0.0712   0.0722  -0.0000  -0.0181  -0.0513   0.0130
  11 C   :1s    -0.0588  -0.0834   0.0364   0.0114   0.0323   0.0729
  12 C   :1s    -1.4907  -1.1986  -0.3594   0.1664   0.9002  -0.7540
  13 C   :2px    0.1085   0.0303   0.0145   0.0049   0.1330   0.1653
  14 C   :2py    0.1957   0.1157  -0.0362  -0.0243   0.0829  -0.0648
  15 C   :2pz   -0.0737  -0.0024  -0.0404   0.0790  -0.0590  -0.0212
  16 C   :2px    0.2189   0.1042   0.1241  -0.0443  -0.2030   1.4525
  17 C   :2py    0.7278   0.8019  -0.4818  -0.2095   0.8806  -1.2279
  18 C   :2pz   -0.1590  -0.0270  -0.1647   0.2542  -0.0510  -0.2288
  19 C   :1s     0.0040  -0.0804   0.0403   0.0413   0.0239   0.0414
  20 C   :1s     0.0095   0.0798  -0.0473  -0.0673  -0.0746   0.0558
  21 C   :1s    -0.2775   1.6402  -0.6014  -0.5169  -0.2243  -2.1028
  22 C   :2px   -0.0492  -0.0198  -0.0212  -0.0515   0.0951   0.0399
  23 C   :2py    0.0791  -0.1712  -0.0112   0.0367   0.0031   0.0163
  24 C   :2pz    0.0428  -0.0235   0.1111  -0.1203   0.0112  -0.0697
  25 C   :2px   -0.5846  -0.0454  -0.2492  -0.3503   0.1330   0.0111
  26 C   :2py    0.0547  -1.0562   0.2643   0.4407   0.5007  -0.0714
  27 C   :2pz    0.2359  -0.0662   0.3158  -0.2622   0.0760  -0.2213
  28 C   :1s    -0.0484   0.0170  -0.0760  -0.0699   0.0551   0.0202
  29 C   :1s     0.0104  -0.0337   0.1071   0.0843  -0.0731   0.0115
  30 C   :1s     1.2876   0.1146   1.3678   1.3378  -1.2488  -0.4965
  31 C   :2px    0.1266   0.0434   0.0233   0.1088   0.1770  -0.0927
  32 C   :2py    0.0026  -0.0102   0.0114  -0.0028  -0.2138  -0.2282
  33 C   :2pz   -0.0447   0.0120  -0.0927   0.0866  -0.0588   0.0322
  34 C   :2px    0.3259   0.0848   0.4405   0.7066   0.7922  -0.5026
  35 C   :2py   -0.2542   0.3124   0.0014  -0.0781  -1.5475  -1.3594
  36 C   :2pz   -0.1698   0.0750  -0.4709   0.3716  -0.3042   0.1356
  37 C   :1s     0.0364  -0.0046   0.0355   0.0343  -0.0532  -0.0239
  38 C   :1s    -0.0446   0.0335  -0.0206  -0.0269  -0.0108   0.0145
  39 C   :1s    -0.4572  -0.2302  -0.5568  -0.5686   1.3295   0.6392
  40 C   :2px    0.1537  -0.1833  -0.1440  -0.1390  -0.0410  -0.0705
  41 C   :2py    0.0356  -0.0086   0.0402   0.0819  -0.1365  -0.1495
  42 C   :2pz   -0.0077  -0.0243   0.2396  -0.2358   0.0295  -0.0563
  43 C   :2px    0.6034  -0.7857  -0.7794  -0.7738  -0.6027   0.1615
  44 C   :2py    0.1076   0.1229   0.3811   0.5126  -1.5409  -1.2483
  45 C   :2pz   -0.0424  -0.0724   1.1006  -0.9416   0.1370  -0.3003
  46 H   :1s     0.0071   0.0145  -0.0170  -0.0137  -0.0253   0.0098
  47 H   :1s     1.5902   1.3332  -0.1871  -0.3789   0.3042   0.2102
  48 H   :1s    -0.0120   0.0311   0.0188   0.0170  -0.0121  -0.0337
  49 H   :1s    -1.0183   0.0938  -0.9830  -1.1713  -1.1779   0.0025
  50 H   :1s     0.0086  -0.0107  -0.0086  -0.0324   0.0110   0.0521
  51 H   :1s     0.4961  -0.5912   0.6423  -1.3972   0.1644   0.1498
  52 H   :1s    -0.0402   0.0176   0.0185   0.0165   0.0703   0.0089
  53 H   :1s    -0.6670   0.9904   1.0786   0.9397   0.6695   0.2509
  54 H   :1s     0.0237   0.0012  -0.0416  -0.0144   0.0148   0.0559
  55 H   :1s     0.6182  -0.3720  -1.4921   0.7134  -0.2737   0.5528
  56 H   :1s    -0.0001  -0.0038   0.0024   0.0166  -0.0045  -0.1181
  57 H   :1s     0.4404  -1.8030   0.5780   0.7920   0.4711   0.1562

  Total CPU  time used in SIRIUS :   0.29 seconds
  Total wall time used in SIRIUS :   0.70 seconds

 
     Date and time (Linux)  : Tue Mar 26 12:39:53 2024
     Host name              : node103                                 


                     .---------------------------------------.
                     | End of Wave Function Section (SIRIUS) |
                     `---------------------------------------'


 Initial molecular Hessian will be calculated now.

 Center of mass dipole origin  :   -0.775248    4.583097    0.123523

 Center of mass gauge origin   :   -0.775248    4.583097    0.123523


                 .------------------------------------------------.
                 | Starting in Static Property Section (ABACUS) - |
                 `------------------------------------------------'


 
     Date and time (Linux)  : Tue Mar 26 12:39:53 2024
     Host name              : node103                                 
  Total CPU  time used in TWOINT:   1.50 seconds
  Total wall time used in TWOINT:   1.51 seconds
  Total CPU  time used in TWOINT:   0.17 seconds
  Total wall time used in TWOINT:   0.17 seconds
  Total CPU  time used in TWOINT:   0.18 seconds
  Total wall time used in TWOINT:   0.19 seconds
  Total CPU  time used in TWOINT:   0.19 seconds
  Total wall time used in TWOINT:   0.19 seconds
  Total CPU  time used in TWOINT:   0.19 seconds
  Total wall time used in TWOINT:   0.19 seconds
  Total CPU  time used in TWOINT:   0.18 seconds
  Total wall time used in TWOINT:   0.18 seconds
  Total CPU  time used in TWOINT:   0.07 seconds
  Total wall time used in TWOINT:   0.07 seconds
  Total CPU  time used in TWOINT:   0.07 seconds
  Total wall time used in TWOINT:   0.07 seconds
  Total CPU  time used in TWOINT:   0.07 seconds
  Total wall time used in TWOINT:   0.07 seconds
  Total CPU  time used in TWOINT:   0.07 seconds
  Total wall time used in TWOINT:   0.07 seconds
  Total CPU  time used in TWOINT:   0.07 seconds
  Total wall time used in TWOINT:   0.07 seconds
  Total CPU  time used in TWOINT:   0.07 seconds
  Total wall time used in TWOINT:   0.07 seconds


   ***************************************************************************
   ************************ FINAL RESULTS from ABACUS ************************
   ***************************************************************************


 
     Date and time (Linux)  : Tue Mar 26 12:39:57 2024
     Host name              : node103                                 


                             Molecular geometry (au)
                             -----------------------

 O         -3.9736743025            5.1783049753            0.7248401045
 C         -2.8725238050            3.1162704813            0.5512208736
 C         -0.2372341787            2.7050342800           -0.1728224395
 C          1.6739945763            4.3570157190           -0.3725474595
 C          1.7681683718            7.1895054170           -0.1962003043
 H         -3.9193805738            1.3891924127            0.9720333312
 H          3.4831721620            3.4917539597           -0.7294585272
 H          0.8303882961            8.1985616360           -1.7779534848
 H          3.7009423298            7.8428369879           -0.2537482463
 H          0.9087058203            7.8763838016            1.5302211297
 H          0.2251513995            0.7383733893           -0.3937495518





                        Molecular wave function and energy
                        ----------------------------------

     Spatial symmetry   1 ( A   )
     Spin multiplicity  1
     2 * M_S            0
     State number       1
     Total charge       0

     Total energy       -229.6927139657 au (Hartrees)
                         -6250.25668995 eV
                           -603058.1275 kJ/mol
                           -144134.3517 kcal/mol


                   Scalar Breit-Pauli relativistic corrections
                   -------------------------------------------

     Darwin correction:                          0.4328652510 au
     Mass-velocity correction:                  -0.5426826169 au

     Total relativistic correction:             -0.1098173659 au ( 0.0478%)
     Non-relativistic + relativistic energy:  -229.8025313316 au



      (Note that these corrections are NOT included in the results below.)


                             Molecular gradient (au)
                             -----------------------

 O         -0.0188446709            0.0259176888            0.0018948651
 C          0.0171202305           -0.0274042682            0.0013334629
 C         -0.0055831675           -0.0018858429           -0.0072523386
 C          0.0020503073            0.0037682680            0.0072647466
 C          0.0089119092           -0.0121500185            0.0073684218
 H         -0.0018400139           -0.0051342578            0.0010944582
 H          0.0004638916           -0.0011055485            0.0024246030
 H         -0.0009117465            0.0152464605           -0.0114821039
 H         -0.0029176222            0.0023617296           -0.0034718253
 H          0.0021795751            0.0004633582            0.0007884628
 H         -0.0006286928           -0.0000775694            0.0000372474





                              Molecular Hessian (au)
                              ----------------------

           O    x      O    y      O    z      C    x      C    y      C    z

 O    x    0.241001
 O    y   -0.280507    0.630844
 O    z   -0.038680    0.039490    0.047352

 C    x   -0.234579    0.218032    0.027731    0.681859
 C    y    0.233033   -0.581813   -0.032414   -0.119006    0.939844
 C    z    0.028095   -0.029554   -0.088989   -0.117571   -0.007724    0.271690

 C    x   -0.026301    0.042120    0.011857   -0.254019   -0.013985    0.049554
 C    y    0.048253    0.007068   -0.011863    0.030753   -0.144674   -0.008881
 C    z    0.009808   -0.009114    0.019067    0.044788    0.003450   -0.111905

 C    x    0.006637   -0.004621   -0.001788   -0.034338   -0.023091    0.004261
 C    y    0.004535   -0.014770   -0.001616   -0.014611    0.027493    0.003355
 C    z   -0.002008    0.000690   -0.001577    0.011079    0.005821    0.005694

 C    x   -0.000518   -0.003069   -0.000082   -0.003627    0.002571   -0.000400
 C    y   -0.001206    0.001690    0.000213    0.004131   -0.001823    0.000049
 C    z   -0.000116   -0.000288    0.000342   -0.003143    0.001246   -0.008747

 H    x    0.021822    0.025125   -0.001514   -0.153681   -0.111794    0.031292
 H    y   -0.005610   -0.048665    0.006597   -0.114913   -0.228000    0.043315
 H    z    0.000123   -0.001462    0.023136    0.032042    0.041172   -0.086888

 H    x    0.000275    0.000694   -0.000356    0.000326   -0.005305    0.001675
 H    y    0.000063    0.001067    0.000241   -0.002210   -0.003094   -0.001230
 H    z    0.000222   -0.000538   -0.002250    0.002853   -0.001274    0.016048

 H    x   -0.000106    0.001667    0.000002    0.001994   -0.001494   -0.000427
 H    y   -0.000610    0.001361   -0.000661    0.002061   -0.001431    0.001779
 H    z   -0.000344   -0.001140    0.000289   -0.000524    0.000658    0.000357

 H    x   -0.000659   -0.000690    0.000153    0.000418    0.000941   -0.000197
 H    y   -0.000099    0.001079    0.000048    0.001119   -0.000477   -0.000374
 H    z    0.000257    0.000517    0.000590    0.000301   -0.000476   -0.000316

 H    x   -0.000533    0.002242    0.000332    0.002811   -0.002228   -0.000596
 H    y   -0.000202    0.001689    0.001101    0.000721   -0.001870   -0.002505
 H    z    0.000479    0.001364    0.000136    0.000397   -0.000872   -0.000071

 H    x   -0.007040   -0.000993    0.002344   -0.007162    0.040357    0.004314
 H    y    0.002350    0.000448   -0.001137   -0.006078   -0.004155    0.001771
 H    z    0.002164    0.000035    0.001904    0.002047   -0.009588    0.003127


           C    x      C    y      C    z      C    x      C    y      C    z

 C    x    0.782302
 C    y    0.122773    0.823243
 C    z   -0.125280    0.022233    0.183045

 C    x   -0.391668   -0.228672    0.039465    0.826867
 C    y   -0.194465   -0.328489    0.015067    0.133945    0.751283
 C    z    0.036432    0.019113   -0.083737   -0.097934    0.019306    0.228385

 C    x    0.017312   -0.023860   -0.003024   -0.112346   -0.016568    0.002032
 C    y   -0.005223   -0.016172   -0.000404    0.004026   -0.244028   -0.012158
 C    z   -0.001137    0.002079    0.006630    0.004502   -0.012380   -0.094218

 H    x   -0.014254   -0.030099    0.012691   -0.004383    0.003620    0.002141
 H    y    0.007714    0.003700   -0.001522    0.000834    0.002156    0.000067
 H    z    0.008384    0.009718    0.020880    0.002952   -0.000861    0.001087

 H    x   -0.026721    0.014480    0.008401   -0.301332    0.109438    0.048120
 H    y   -0.028592    0.008966    0.005017    0.116695   -0.120358   -0.024059
 H    z    0.006596   -0.000451    0.013629    0.047500   -0.023108   -0.068053

 H    x   -0.002022   -0.002022    0.000088    0.001827    0.000390    0.005333
 H    y   -0.000800   -0.000248   -0.001479    0.017547   -0.017110    0.028404
 H    z    0.000127    0.000688    0.001147    0.004173   -0.003847    0.005417

 H    x    0.001133   -0.000118   -0.000383    0.001160    0.006106    0.000865
 H    y    0.003003   -0.005737   -0.001019   -0.043103   -0.017744    0.000760
 H    z    0.000026   -0.000828    0.001332   -0.003564   -0.000631   -0.000864

 H    x   -0.002837   -0.002183    0.000227    0.002369    0.003423   -0.004302
 H    y   -0.001289   -0.000162    0.001745    0.018881   -0.015193   -0.034691
 H    z    0.000239   -0.000757    0.001456    0.000156    0.001345    0.000896

 H    x   -0.082925    0.070694    0.013218    0.005207   -0.035812   -0.001757
 H    y    0.068743   -0.347495   -0.033973    0.007558   -0.023239   -0.003252
 H    z    0.013202   -0.031050   -0.051544    0.000278    0.003370    0.006970


           C    x      C    y      C    z      H    x      H    y      H    z

 C    x    0.635022
 C    y    0.010838    0.554759
 C    z   -0.036331    0.015975    0.576484

 H    x    0.000107    0.000143    0.000676    0.152069
 H    y    0.000330   -0.000092    0.000126    0.113184    0.269739
 H    z    0.000137   -0.000195    0.001605   -0.043416   -0.048838    0.044710

 H    x    0.002833   -0.004789    0.001104   -0.001587   -0.000060    0.000225
 H    y    0.028851   -0.015620   -0.007915   -0.000755   -0.000242    0.000594
 H    z    0.002634   -0.001426    0.012859   -0.001208    0.000028   -0.002538

 H    x   -0.106966    0.044672   -0.080814   -0.000006    0.000008   -0.000188
 H    y    0.046712   -0.109149    0.081631   -0.000131   -0.000082   -0.000117
 H    z   -0.080430    0.078895   -0.188703   -0.000076   -0.000115   -0.000268

 H    x   -0.321520   -0.086140    0.008283   -0.000049   -0.000160    0.000034
 H    y   -0.078084   -0.084559    0.000590   -0.000134    0.000067    0.000045
 H    z    0.008664    0.000633   -0.059689   -0.000094    0.000014   -0.000216

 H    x   -0.107645    0.034030    0.103934    0.000068    0.000082    0.000148
 H    y    0.035775   -0.086758   -0.080811   -0.000025   -0.000013    0.000093
 H    z    0.104361   -0.080871   -0.259166   -0.000150    0.000078   -0.000332

 H    x   -0.002650   -0.000482    0.003043   -0.000107   -0.001409   -0.000441
 H    y   -0.003496    0.001753   -0.000253    0.000866    0.001433   -0.000151
 H    z    0.002439   -0.000711    0.012602   -0.000343    0.000249   -0.001177


           H    x      H    y      H    z      H    x      H    y      H    z

 H    x    0.321983
 H    y   -0.113215    0.134026
 H    z   -0.056522    0.026244    0.043100

 H    x    0.000367    0.000458    0.000039    0.116311
 H    y   -0.000252   -0.003141   -0.001182   -0.053688    0.118135
 H    z    0.000139   -0.000517   -0.001632    0.093905   -0.089172    0.209102

 H    x    0.002293    0.000024   -0.000034   -0.019267   -0.004886   -0.000076
 H    y   -0.000302    0.001749    0.000264    0.016500    0.005612   -0.000104
 H    z   -0.000262    0.000090    0.000201   -0.031114   -0.007937    0.000267

 H    x    0.000716    0.000286    0.000487    0.007907   -0.005285   -0.016960
 H    y   -0.000183   -0.004752    0.000598   -0.006587    0.005963    0.014545
 H    z   -0.000792    0.000419   -0.001075    0.013454   -0.008893   -0.025518

 H    x    0.000849   -0.001605   -0.002566   -0.000039   -0.000668    0.000066
 H    y   -0.000507    0.001400    0.000844    0.000095    0.000090    0.000110
 H    z   -0.001732    0.001115   -0.010289   -0.000279   -0.002374   -0.000459


           H    x      H    y      H    z      H    x      H    y      H    z

 H    x    0.350998
 H    y    0.089648    0.097219
 H    z   -0.007358   -0.001745    0.056916

 H    x   -0.014284    0.012368    0.033136    0.111392
 H    y   -0.004602    0.003979    0.010448   -0.042859    0.097119
 H    z   -0.001355    0.001040    0.001427   -0.116620    0.087227    0.282161

 H    x   -0.000222   -0.000916    0.000009    0.000037    0.000371   -0.000171
 H    y   -0.000122   -0.001188   -0.000085    0.000125   -0.000001   -0.000081
 H    z    0.000067    0.000495    0.000351    0.000214    0.002251    0.000086


           H    x      H    y      H    z

 H    x    0.094052
 H    y   -0.069535    0.370955
 H    z   -0.018058    0.036207    0.038429





                                  Dipole moment
                                  -------------

                 au               Debye          C m (/(10**-30)
              1.382434           3.513798          11.720768


                             Dipole moment components
                             ------------------------

                 au               Debye          C m (/(10**-30)

      x      1.17587300         2.98877085         9.96946644
      y     -0.70851797        -1.80087294        -6.00706552
      z     -0.16263490        -0.41337666        -1.37887610


   Units:   1 a.u. =   2.54175 Debye 
            1 a.u. =   8.47835 (10**-30) C m (SI)




   Interatomic separations (in Angstrom):
   --------------------------------------

            O           C           C           C           C           H     
            ------      ------      ------      ------      ------      ------
 O     :    0.000000
 C     :    1.240428    0.000000
 C     :    2.418279    1.462494    0.000000
 C     :    3.075377    2.541353    1.340995    0.000000
 C     :    3.256139    3.291376    2.599584    1.502618    0.000000
 H     :    2.009580    1.091670    2.156054    3.425445    4.343014    0.000000
 H     :    4.118209    3.436638    2.033734    1.077910    2.175360    4.170562
 H     :    3.281963    3.548499    3.080843    2.210182    1.109957    4.628115
 H     :    4.330115    4.305528    3.425898    2.134729    1.080062    5.323991
 H     :    2.982509    3.258409    2.944261    2.155522    1.083329    4.289459
 H     :    3.287480    2.126144    1.075463    2.062717    3.511641    2.334750

            H           H           H           H           H     
            ------      ------      ------      ------      ------
 H     :    0.000000
 H     :    2.912429    0.000000
 H     :    2.319079    1.730160    0.000000
 H     :    2.944385    1.759381    1.753507    0.000000
 H     :    2.264267    4.027895    4.185993    3.928766    0.000000


  Max    interatomic separation is    5.3240 Angstrom (   10.0609 Bohr)
  between atoms    9 and    6, "H     " and "H     ".

  Min HX interatomic separation is    1.0755 Angstrom (    2.0323 Bohr)

  Min YX interatomic separation is    1.2404 Angstrom (    2.3441 Bohr)


  Bond distances (Angstrom):
  --------------------------

                  atom 1     atom 2       distance
                  ------     ------       --------
  bond distance:  C          O            1.240428
  bond distance:  C          C            1.462494
  bond distance:  C          C            1.340995
  bond distance:  C          C            1.502618
  bond distance:  H          C            1.091670
  bond distance:  H          C            1.077910
  bond distance:  H          C            1.109957
  bond distance:  H          C            1.080062
  bond distance:  H          C            1.083329
  bond distance:  H          C            1.075463


  Bond angles (degrees):
  ----------------------

                  atom 1     atom 2     atom 3         angle
                  ------     ------     ------         -----
  bond angle:     O          C          C            126.743
  bond angle:     O          C          H            118.879
  bond angle:     C          C          H            114.377
  bond angle:     C          C          C            130.001
  bond angle:     C          C          H            112.918
  bond angle:     C          C          H            116.787
  bond angle:     C          C          C            132.098
  bond angle:     C          C          H            114.001
  bond angle:     C          C          H            113.901
  bond angle:     C          C          H            114.722
  bond angle:     C          C          H            110.424
  bond angle:     C          C          H            111.909
  bond angle:     H          C          H            104.367
  bond angle:     H          C          H            106.669
  bond angle:     H          C          H            108.297




 CPU time statistics for ABACUS
 ------------------------------

 TWOTEX     00:00:02      36 %
 RHSIDE     00:00:02      42 %

 TOTAL      00:00:04     100 %


  Total CPU  time used in ABACUS:   4.21 seconds
  Total wall time used in ABACUS:   4.23 seconds


                   .-------------------------------------------.
                   | End of Static Property Section (ABACUS) - |
                   `-------------------------------------------'

Initial Hessian is analytical Hessian

Initial Hessian has been calculated in redundant internal coordinates.



           :::::::::::::::::::::::::::::::::::::::::::::::::::::::::::
           ::::::::::::::: Optimization Control Center :::::::::::::::
           :::::::::::::::::::::::::::::::::::::::::::::::::::::::::::



                                Next geometry (au)
                                ------------------

 O         -3.3699742293            5.5792975617            0.7141581971
 C         -2.6766992498            3.3438340852            0.4824008297
 C         -0.0632633485            2.5772731689           -0.0987809350
 C          1.8186115298            4.2312453022           -0.3717527450
 C          1.5743658231            7.0687563307           -0.1593033042
 H         -4.0683823262            1.7966189663            0.7185190216
 H          3.6767503557            3.4952276329           -0.7737195266
 H          0.2692736403            7.8291338184           -1.6100698926
 H          3.4150969227            7.9870637449           -0.3617635615
 H          0.7303178497            7.5907919109            1.6384556088
 H          0.2816131282            0.5839905377           -0.2963082669





   Interatomic separations (in Angstrom):
   --------------------------------------

            O           C           C           C           C           H     
            ------      ------      ------      ------      ------      ------
 O     :    0.000000
 C     :    1.244595    0.000000
 C     :    2.402217    1.473683    0.000000
 C     :    2.894453    2.466494    1.333652    0.000000
 C     :    2.771390    3.010194    2.530049    1.511286    0.000000
 H     :    2.035541    1.108296    2.202190    3.420172    4.112855    0.000000
 H     :    3.967540    3.428116    2.068933    1.078792    2.217981    4.269615
 H     :    2.576605    3.047946    2.897293    2.174054    1.108265    4.120412
 H     :    3.852182    4.077831    3.406273    2.159603    1.093820    5.171095
 H     :    2.465809    2.945425    2.839031    2.150301    1.086667    4.010809
 H     :    3.317744    2.180232    1.075563    2.094802    3.499865    2.449285

            H           H           H           H           H     
            ------      ------      ------      ------      ------
 H     :    0.000000
 H     :    2.950756    0.000000
 H     :    2.390965    1.792920    0.000000
 H     :    2.959312    1.740847    1.784037    0.000000
 H     :    2.380132    3.896492    4.254154    3.853919    0.000000


  Max    interatomic separation is    5.1711 Angstrom (    9.7720 Bohr)
  between atoms    9 and    6, "H     " and "H     ".

  Min HX interatomic separation is    1.0756 Angstrom (    2.0325 Bohr)

  Min YX interatomic separation is    1.2446 Angstrom (    2.3519 Bohr)


  Bond distances (Angstrom):
  --------------------------

                  atom 1     atom 2       distance
                  ------     ------       --------
  bond distance:  C          O            1.244595
  bond distance:  C          C            1.473683
  bond distance:  C          C            1.333652
  bond distance:  C          C            1.511286
  bond distance:  H          C            1.108296
  bond distance:  H          C            1.078792
  bond distance:  H          C            1.108265
  bond distance:  H          C            1.093820
  bond distance:  H          C            1.086667
  bond distance:  H          C            1.075563


  Bond angles (degrees):
  ----------------------

                  atom 1     atom 2     atom 3         angle
                  ------     ------     ------         -----
  bond angle:     O          C          C            123.974
  bond angle:     O          C          H            119.682
  bond angle:     C          C          H            116.344
  bond angle:     C          C          C            122.868
  bond angle:     C          C          H            116.709
  bond angle:     C          C          H            120.423
  bond angle:     C          C          C            125.460
  bond angle:     C          C          H            117.711
  bond angle:     C          C          H            116.829
  bond angle:     C          C          H            111.253
  bond angle:     C          C          H            110.975
  bond angle:     C          C          H            110.662
  bond angle:     H          C          H            109.013
  bond angle:     H          C          H            104.952
  bond angle:     H          C          H            109.806




                             Optimization information
                             ------------------------

 Iteration number               :       0
 End of optimization            :       F 
 Energy at this geometry is     :    -229.692713965665
 Norm of gradient               :       0.054329317303
 Norm of step                   :       0.499992839105
 Updated trust radius           :       0.500000000000
 Total effective Hessian index  :       1




 **************************************************************************************
 ****************** Output of molecule and basis set info suppressed ******************
 **************************************************************************************



                     .---------------------------------------.
                     | Starting in Integral Section (HERMIT) |
                     `---------------------------------------'



 ***************************************************************************************
 ****************** Output from **INTEGRALS input processing (HERMIT) ******************
 ***************************************************************************************


 - Using defaults, no **INTEGRALS input found

 Default print level:       -1

 Calculation of one- and two-electron Hamiltonian integrals.

 Center of mass  (bohr):     -0.595756847496      4.645873744680      0.127972319864
 Operator center (bohr):      0.000000000000      0.000000000000      0.000000000000
 Gauge origin    (bohr):      0.000000000000      0.000000000000      0.000000000000
 Dipole origin   (bohr):      0.000000000000      0.000000000000      0.000000000000


                      Nuclear contribution to dipole moments
                      --------------------------------------

                 au               Debye          C m (/(10**-30)

      x    -18.73703574       -47.62479140      -158.85920453
      y    177.24386043       450.50892780      1502.73602881
      z      4.14376203        10.53239185        35.13227757


  Total CPU  time used in HERMIT:   0.02 seconds
  Total wall time used in HERMIT:   0.02 seconds


                        .----------------------------------.
                        | End of Integral Section (HERMIT) |
                        `----------------------------------'



[...]
     `--------------------------------------------------'


     HF-SCF KT symmetry 1 ( A  ) in point group C1  -- 19 principal poles with pole strength 1

   ============  ============  ============  ============  ============
      20.562453     11.338155     11.274816     11.240437     11.224936
     559.532819    308.526897    306.803356    305.867850    305.446055
   ============  ============  ============  ============  ============

   ============  ============  ============  ============  ============
       1.399942      1.100342      0.979558      0.869018      0.746980
      38.094350     29.941823     26.655120     23.647182     20.326370
   ============  ============  ============  ============  ============

   ============  ============  ============  ============  ============
       0.690903      0.628387      0.611585      0.578911      0.537001
      18.800438     17.099292     16.642064     15.752969     14.612532
   ============  ============  ============  ============  ============

   ============  ============  ============  ============
       0.525772      0.523910      0.416449      0.373426
      14.306986     14.256314     11.332165     10.161430
   ============  ============  ============  ============

@ Summary of HF-SCF KT ionization potentials [eV]:

@ Symmetry 1 (A  ) :   559.533     308.527     306.803     305.868     305.446
@                       38.094      29.942      26.655      23.647      20.326
@                       18.800      17.099      16.642      15.753      14.613
@                       14.307      14.256      11.332      10.161

  === End of HF-SCF KT output ===
--------------------------------------------------------------------------------


 CPU and wall time for SCF :       0.253       0.561


                       .-----------------------------------.
                       | --- Final results from SIRIUS --- |
                       `-----------------------------------'


@    Spin multiplicity:           1
@    Spatial symmetry:            1 ( irrep  A   in C1  )
@    Total charge of molecule:    0

@    Final HF energy:            -229.698538460078                 
@    Nuclear repulsion:           160.585295217558
@    Electronic energy:          -390.283833677636

@    Final gradient norm:           0.000004088063

 
     Date and time (Linux)  : Tue Mar 26 12:40:06 2024
     Host name              : node103                                 

  Total CPU  time used in SIRIUS :   0.26 seconds
  Total wall time used in SIRIUS :   0.60 seconds

 
     Date and time (Linux)  : Tue Mar 26 12:40:06 2024
     Host name              : node103                                 


                     .---------------------------------------.
                     | End of Wave Function Section (SIRIUS) |
                     `---------------------------------------'

 Trust radius squarely increased due to very good ratio.
 Updated trust radius   0.02500

 Center of mass dipole origin  :   -0.647744    4.626760    0.141373

 Center of mass gauge origin   :   -0.647744    4.626760    0.141373


                 .------------------------------------------------.
                 | Starting in Static Property Section (ABACUS) - |
                 `------------------------------------------------'


 
     Date and time (Linux)  : Tue Mar 26 12:40:06 2024
     Host name              : node103                                 


   ***************************************************************************
   ************************ FINAL RESULTS from ABACUS ************************
   ***************************************************************************


 
     Date and time (Linux)  : Tue Mar 26 12:40:07 2024
     Host name              : node103                                 
  Total CPU  time used in ABACUS:   0.51 seconds
  Total wall time used in ABACUS:   0.51 seconds


                   .-------------------------------------------.
                   | End of Static Property Section (ABACUS) - |
                   `-------------------------------------------'



            *********************************************************
            *** Output from geometry convergence control (MINEND) ***
            *********************************************************


 Energy converged       yes 
 Gradient converged     yes 
 Step converged         no  
 Conditions fullfilled   2
 Required conditions     2
 Totally sym. index      0
 Hessian index           1
 End of optimization    yes 


           :::::::::::::::::::::::::::::::::::::::::::::::::::::::::::
           ::::::::::::::: Optimization Control Center :::::::::::::::
           :::::::::::::::::::::::::::::::::::::::::::::::::::::::::::



                               Final geometry (au)
                               -------------------

 O         -3.5448780740            5.4338730414            0.7632006942
 C         -2.7270353454            3.2874929721            0.5239854580
 C         -0.1137482346            2.6295125288           -0.0887615501
 C          1.7718821605            4.2775358008           -0.3906586344
 C          1.6291258462            7.1030527375           -0.1734810795
 H         -4.0015916663            1.7010752967            0.7731211349
 H          3.5994383984            3.5093697284           -0.8453678088
 H          0.5003480628            7.8921973126           -1.6905573434
 H          3.4959041564            7.9301620244           -0.2560393021
 H          0.7175532022            7.6736721156            1.5642976491
 H          0.2607115894            0.6452895013           -0.2979037924





                             Optimization information
                             ------------------------

 Iteration number               :       7
 End of optimization            :       T 
 Energy at this geometry is     :    -229.698538460078
 Energy change from last geom.  :      -0.000000536460
 Predicted change               :      -0.000000561270
 Ratio, actual/predicted change :       0.955795061994
 Norm of gradient               :       0.000029910675
 Norm of step                   :       0.001109770534
 Updated trust radius           :       0.025000000000
 Total effective Hessian index  :       1




          <<<<<<<<<<<<<<<<<<<<<<<<<<<<<<<<<<<<<<<<<<<<<<<<<<<<<<<<<<<<<<
          <<<<<<<<<<<<<<<<<<<<  End of Optimization <<<<<<<<<<<<<<<<<<<<
          <<<<<<<<<<<<<<<<<<<<<<<<<<<<<<<<<<<<<<<<<<<<<<<<<<<<<<<<<<<<<<



                              Final geometry (bohr)
                              ---------------------

 O         -3.5448780740            5.4338730414            0.7632006942
 C         -2.7270353454            3.2874929721            0.5239854580
 C         -0.1137482346            2.6295125288           -0.0887615501
 C          1.7718821605            4.2775358008           -0.3906586344
 C          1.6291258462            7.1030527375           -0.1734810795
 H         -4.0015916663            1.7010752967            0.7731211349
 H          3.5994383984            3.5093697284           -0.8453678088
 H          0.5003480628            7.8921973126           -1.6905573434
 H          3.4959041564            7.9301620244           -0.2560393021
 H          0.7175532022            7.6736721156            1.5642976491
 H          0.2607115894            0.6452895013           -0.2979037924





                      Final geometry (xyz format; angstrom)
                      -------------------------------------

11

O       -1.8758686918            2.8754817799            0.4038684146
C       -1.4430849578            1.7396663615            0.2772811632
C       -0.0601929735            1.3914781058           -0.0469705895
C        0.9376396596            2.2635744642           -0.2067276465
C        0.8620962713            3.7587736358           -0.0918022338
H       -2.1175511167            0.9001702809            0.4091180858
H        1.9047407721            1.8570784845           -0.4473493792
H        0.2647727923            4.1763709610           -0.8946044197
H        1.8499528107            4.1964610213           -0.1354901637
H        0.3797128021            4.0607324067            0.8277906668
H        0.1379626317            0.3414724985           -0.1576438979



@ Iter     Energy        Change       GradNorm  Index   StepLen    TrustRad #Rej
@ ------------------------------------------------------------------------------
@   0     -229.692714     0.000000     0.054329    1    0.499993*   0.500000   0 
@   1     -229.695764    -0.003050     0.052079    1    0.499979*   0.499993   0 
@   2     -229.698253    -0.002490     0.005087    1    0.499995    0.499979   0 
@   3     -229.698336    -0.000083     0.003706    1    0.241107*   0.349996   0 
@   4     -229.698508    -0.000172     0.006968    1    0.014636*   0.349996   0 
@   5     -229.698538    -0.000030     0.000751    1    0.015609*   0.349996   0 
@   6     -229.698538     0.000000     0.000338    1    0.013058*   0.025000   0 
@   7     -229.698538    -0.000001     0.000030    1    0.001110*   0.025000   0 

@  *) Newton step taken.


   Interatomic separations (in Angstrom):
   --------------------------------------

            O           C           C           C           C           H     
            ------      ------      ------      ------      ------      ------
 O     :    0.000000
 C     :    1.222049    0.000000
 C     :    2.387928    1.462452    0.000000
 C     :    2.943312    2.485275    1.334820    0.000000
 C     :    2.919306    3.086564    2.541007    1.501511    0.000000
 H     :    1.990049    1.084914    2.163821    3.401812    4.159427    0.000000
 H     :    4.006835    3.427362    2.058653    1.076300    2.197718    4.222327
 H     :    2.821470    3.198066    2.929115    2.141195    1.084285    4.255426
 H     :    3.989692    4.129203    3.394764    2.138560    1.081360    5.186831
 H     :    2.583056    3.002166    2.843175    2.147391    1.081445    4.049786
 H     :    3.285120    2.154952    1.074256    2.082395    3.493802    2.391799

            H           H           H           H           H     
            ------      ------      ------      ------      ------
 H     :    0.000000
 H     :    2.875526    0.000000
 H     :    2.360714    1.757684    0.000000
 H     :    2.967791    1.730095    1.762934    0.000000
 H     :    2.345740    3.907127    4.218096    3.855181    0.000000


  Max    interatomic separation is    5.1868 Angstrom (    9.8017 Bohr)
  between atoms    9 and    6, "H     " and "H     ".

  Min HX interatomic separation is    1.0743 Angstrom (    2.0300 Bohr)

  Min YX interatomic separation is    1.2220 Angstrom (    2.3093 Bohr)


  Bond distances (Angstrom):
  --------------------------

                  atom 1     atom 2       distance
                  ------     ------       --------
  bond distance:  C          O            1.222049
  bond distance:  C          C            1.462452
  bond distance:  C          C            1.334820
  bond distance:  C          C            1.501511
  bond distance:  H          C            1.084914
  bond distance:  H          C            1.076300
  bond distance:  H          C            1.084285
  bond distance:  H          C            1.081360
  bond distance:  H          C            1.081445
  bond distance:  H          C            1.074256


  Bond angles (degrees):
  ----------------------

                  atom 1     atom 2     atom 3         angle
                  ------     ------     ------         -----
  bond angle:     O          C          C            125.390
  bond angle:     O          C          H            119.107
  bond angle:     C          C          H            115.504
  bond angle:     C          C          C            125.300
  bond angle:     C          C          H            115.466
  bond angle:     C          C          H            119.234
  bond angle:     C          C          C            127.144
  bond angle:     C          C          H            116.853
  bond angle:     C          C          H            116.002
  bond angle:     C          C          H            110.767
  bond angle:     C          C          H            110.732
  bond angle:     C          C          H            111.443
  bond angle:     H          C          H            108.509
  bond angle:     H          C          H            106.041
  bond angle:     H          C          H            109.197



@ Geometry converged in  8 iterations!

@ Energy at final geometry is       :    -229.698538 a.u.
@ Energy change during optimization :      -0.005824 a.u.
@                                            -15.292 kJ/mol
 

 Center of mass dipole origin  :   -0.647744    4.626760    0.141373

 Center of mass gauge origin   :   -0.647744    4.626760    0.141373


                 .------------------------------------------------.
                 | Starting in Static Property Section (ABACUS) - |
                 `------------------------------------------------'


 
     Date and time (Linux)  : Tue Mar 26 12:40:07 2024
     Host name              : node103                                 


   ***************************************************************************
   ************************ FINAL RESULTS from ABACUS ************************
   ***************************************************************************


 
     Date and time (Linux)  : Tue Mar 26 12:40:07 2024
     Host name              : node103                                 


                             Molecular geometry (au)
                             -----------------------

 O         -3.5448780740            5.4338730414            0.7632006942
 C         -2.7270353454            3.2874929721            0.5239854580
 C         -0.1137482346            2.6295125288           -0.0887615501
 C          1.7718821605            4.2775358008           -0.3906586344
 C          1.6291258462            7.1030527375           -0.1734810795
 H         -4.0015916663            1.7010752967            0.7731211349
 H          3.5994383984            3.5093697284           -0.8453678088
 H          0.5003480628            7.8921973126           -1.6905573434
 H          3.4959041564            7.9301620244           -0.2560393021
 H          0.7175532022            7.6736721156            1.5642976491
 H          0.2607115894            0.6452895013           -0.2979037924





                        Molecular wave function and energy
                        ----------------------------------

     Spatial symmetry   1 ( A   )
     Spin multiplicity  1
     2 * M_S            0
     State number       1
     Total charge       0

     Total energy       -229.6985384601 au (Hartrees)
                         -6250.41518250 eV
                           -603073.4198 kJ/mol
                           -144138.0066 kcal/mol


                   Scalar Breit-Pauli relativistic corrections
                   -------------------------------------------

     Darwin correction:                          0.4328807168 au
     Mass-velocity correction:                  -0.5427307853 au

     Total relativistic correction:             -0.1098500685 au ( 0.0478%)
     Non-relativistic + relativistic energy:  -229.8083885286 au



      (Note that these corrections are NOT included in the results below.)


                                  Dipole moment
                                  -------------

                 au               Debye          C m (/(10**-30)
              1.252341           3.183133          10.617790


                             Dipole moment components
                             ------------------------

                 au               Debye          C m (/(10**-30)

      x      0.95494631         2.42723126         8.09637198
      y     -0.77835529        -1.97838168        -6.59917095
      z     -0.22494160        -0.57174448        -1.90713429


   Units:   1 a.u. =   2.54175 Debye 
            1 a.u. =   8.47835 (10**-30) C m (SI)




   Interatomic separations (in Angstrom):
   --------------------------------------

            O           C           C           C           C           H     
            ------      ------      ------      ------      ------      ------
 O     :    0.000000
 C     :    1.222049    0.000000
 C     :    2.387928    1.462452    0.000000
 C     :    2.943312    2.485275    1.334820    0.000000
 C     :    2.919306    3.086564    2.541007    1.501511    0.000000
 H     :    1.990049    1.084914    2.163821    3.401812    4.159427    0.000000
 H     :    4.006835    3.427362    2.058653    1.076300    2.197718    4.222327
 H     :    2.821470    3.198066    2.929115    2.141195    1.084285    4.255426
 H     :    3.989692    4.129203    3.394764    2.138560    1.081360    5.186831
 H     :    2.583056    3.002166    2.843175    2.147391    1.081445    4.049786
 H     :    3.285120    2.154952    1.074256    2.082395    3.493802    2.391799

            H           H           H           H           H     
            ------      ------      ------      ------      ------
 H     :    0.000000
 H     :    2.875526    0.000000
 H     :    2.360714    1.757684    0.000000
 H     :    2.967791    1.730095    1.762934    0.000000
 H     :    2.345740    3.907127    4.218096    3.855181    0.000000


  Max    interatomic separation is    5.1868 Angstrom (    9.8017 Bohr)
  between atoms    9 and    6, "H     " and "H     ".

  Min HX interatomic separation is    1.0743 Angstrom (    2.0300 Bohr)

  Min YX interatomic separation is    1.2220 Angstrom (    2.3093 Bohr)


  Bond distances (Angstrom):
  --------------------------

                  atom 1     atom 2       distance
                  ------     ------       --------
  bond distance:  C          O            1.222049
  bond distance:  C          C            1.462452
  bond distance:  C          C            1.334820
  bond distance:  C          C            1.501511
  bond distance:  H          C            1.084914
  bond distance:  H          C            1.076300
  bond distance:  H          C            1.084285
  bond distance:  H          C            1.081360
  bond distance:  H          C            1.081445
  bond distance:  H          C            1.074256


  Bond angles (degrees):
  ----------------------

                  atom 1     atom 2     atom 3         angle
                  ------     ------     ------         -----
  bond angle:     O          C          C            125.390
  bond angle:     O          C          H            119.107
  bond angle:     C          C          H            115.504
  bond angle:     C          C          C            125.300
  bond angle:     C          C          H            115.466
  bond angle:     C          C          H            119.234
  bond angle:     C          C          C            127.144
  bond angle:     C          C          H            116.853
  bond angle:     C          C          H            116.002
  bond angle:     C          C          H            110.767
  bond angle:     C          C          H            110.732
  bond angle:     C          C          H            111.443
  bond angle:     H          C          H            108.509
  bond angle:     H          C          H            106.041
  bond angle:     H          C          H            109.197


  Total CPU  time used in ABACUS:   0.01 seconds
  Total wall time used in ABACUS:   0.01 seconds


                   .-------------------------------------------.
                   | End of Static Property Section (ABACUS) - |
                   `-------------------------------------------'

  Total CPU  time used in DALTON:  10.32 seconds
  Total wall time used in DALTON:  14.60 seconds

 
     Date and time (Linux)  : Tue Mar 26 12:40:07 2024
     Host name              : node103                                 
