[Molden Format]
[GTO]
    1 0
 s  10 1.00
    5484.6717000    0.0018311000
     825.2349500    0.0139501000
     188.0469600    0.0684451000
      52.9645000    0.2327143000
      16.8975700    0.4701930000
       5.7996353    0.3585209000
      15.5396160    0.0000000000
       3.5999336    0.0000000000
       1.0137618    0.0000000000
       0.2700058    0.0000000000
 s  10 1.00
    5484.6717000    0.0000000000
     825.2349500    0.0000000000
     188.0469600    0.0000000000
      52.9645000    0.0000000000
      16.8975700    0.0000000000
       5.7996353    0.0000000000
      15.5396160   -0.1107775000
       3.5999336   -0.1480263000
       1.0137618    1.1307670000
       0.2700058    0.0000000000
 s  10 1.00
    5484.6717000    0.0000000000
     825.2349500    0.0000000000
     188.0469600    0.0000000000
      52.9645000    0.0000000000
      16.8975700    0.0000000000
       5.7996353    0.0000000000
      15.5396160    0.0000000000
       3.5999336    0.0000000000
       1.0137618    0.0000000000
       0.2700058    1.0000000000
 p   4 1.00
      15.5396160    0.0708743000
       3.5999336    0.3397528000
       1.0137618    0.7271586000
       0.2700058    0.0000000000
 p   4 1.00
      15.5396160    0.0000000000
       3.5999336    0.0000000000
       1.0137618    0.0000000000
       0.2700058    1.0000000000

    2 0
 s  10 1.00
    3047.5249000    0.0018347000
     457.3695100    0.0140373000
     103.9486900    0.0688426000
      29.2101550    0.2321844000
       9.2866630    0.4679413000
       3.1639270    0.3623120000
       7.8682724    0.0000000000
       1.8812885    0.0000000000
       0.5442493    0.0000000000
       0.1687144    0.0000000000
 s  10 1.00
    3047.5249000    0.0000000000
     457.3695100    0.0000000000
     103.9486900    0.0000000000
      29.2101550    0.0000000000
       9.2866630    0.0000000000
       3.1639270    0.0000000000
       7.8682724   -0.1193324000
       1.8812885   -0.1608542000
       0.5442493    1.1434564000
       0.1687144    0.0000000000
 s  10 1.00
    3047.5249000    0.0000000000
     457.3695100    0.0000000000
     103.9486900    0.0000000000
      29.2101550    0.0000000000
       9.2866630    0.0000000000
       3.1639270    0.0000000000
       7.8682724    0.0000000000
       1.8812885    0.0000000000
       0.5442493    0.0000000000
       0.1687144    1.0000000000
 p   4 1.00
       7.8682724    0.0689991000
       1.8812885    0.3164240000
       0.5442493    0.7443083000
       0.1687144    0.0000000000
 p   4 1.00
       7.8682724    0.0000000000
       1.8812885    0.0000000000
       0.5442493    0.0000000000
       0.1687144    1.0000000000

    3 0
 s  10 1.00
    3047.5249000    0.0018347000
     457.3695100    0.0140373000
     103.9486900    0.0688426000
      29.2101550    0.2321844000
       9.2866630    0.4679413000
       3.1639270    0.3623120000
       7.8682724    0.0000000000
       1.8812885    0.0000000000
       0.5442493    0.0000000000
       0.1687144    0.0000000000
 s  10 1.00
    3047.5249000    0.0000000000
     457.3695100    0.0000000000
     103.9486900    0.0000000000
      29.2101550    0.0000000000
       9.2866630    0.0000000000
       3.1639270    0.0000000000
       7.8682724   -0.1193324000
       1.8812885   -0.1608542000
       0.5442493    1.1434564000
       0.1687144    0.0000000000
 s  10 1.00
    3047.5249000    0.0000000000
     457.3695100    0.0000000000
     103.9486900    0.0000000000
      29.2101550    0.0000000000
       9.2866630    0.0000000000
       3.1639270    0.0000000000
       7.8682724    0.0000000000
       1.8812885    0.0000000000
       0.5442493    0.0000000000
       0.1687144    1.0000000000
 p   4 1.00
       7.8682724    0.0689991000
       1.8812885    0.3164240000
       0.5442493    0.7443083000
       0.1687144    0.0000000000
 p   4 1.00
       7.8682724    0.0000000000
       1.8812885    0.0000000000
       0.5442493    0.0000000000
       0.1687144    1.0000000000

    4 0
 s  10 1.00
    3047.5249000    0.0018347000
     457.3695100    0.0140373000
     103.9486900    0.0688426000
      29.2101550    0.2321844000
       9.2866630    0.4679413000
       3.1639270    0.3623120000
       7.8682724    0.0000000000
       1.8812885    0.0000000000
       0.5442493    0.0000000000
       0.1687144    0.0000000000
 s  10 1.00
    3047.5249000    0.0000000000
     457.3695100    0.0000000000
     103.9486900    0.0000000000
      29.2101550    0.0000000000
       9.2866630    0.0000000000
       3.1639270    0.0000000000
       7.8682724   -0.1193324000
       1.8812885   -0.1608542000
       0.5442493    1.1434564000
       0.1687144    0.0000000000
 s  10 1.00
    3047.5249000    0.0000000000
     457.3695100    0.0000000000
     103.9486900    0.0000000000
      29.2101550    0.0000000000
       9.2866630    0.0000000000
       3.1639270    0.0000000000
       7.8682724    0.0000000000
       1.8812885    0.0000000000
       0.5442493    0.0000000000
       0.1687144    1.0000000000
 p   4 1.00
       7.8682724    0.0689991000
       1.8812885    0.3164240000
       0.5442493    0.7443083000
       0.1687144    0.0000000000
 p   4 1.00
       7.8682724    0.0000000000
       1.8812885    0.0000000000
       0.5442493    0.0000000000
       0.1687144    1.0000000000

    5 0
 s  10 1.00
    3047.5249000    0.0018347000
     457.3695100    0.0140373000
     103.9486900    0.0688426000
      29.2101550    0.2321844000
       9.2866630    0.4679413000
       3.1639270    0.3623120000
       7.8682724    0.0000000000
       1.8812885    0.0000000000
       0.5442493    0.0000000000
       0.1687144    0.0000000000
 s  10 1.00
    3047.5249000    0.0000000000
     457.3695100    0.0000000000
     103.9486900    0.0000000000
      29.2101550    0.0000000000
       9.2866630    0.0000000000
       3.1639270    0.0000000000
       7.8682724   -0.1193324000
       1.8812885   -0.1608542000
       0.5442493    1.1434564000
       0.1687144    0.0000000000
 s  10 1.00
    3047.5249000    0.0000000000
     457.3695100    0.0000000000
     103.9486900    0.0000000000
      29.2101550    0.0000000000
       9.2866630    0.0000000000
       3.1639270    0.0000000000
       7.8682724    0.0000000000
       1.8812885    0.0000000000
       0.5442493    0.0000000000
       0.1687144    1.0000000000
 p   4 1.00
       7.8682724    0.0689991000
       1.8812885    0.3164240000
       0.5442493    0.7443083000
       0.1687144    0.0000000000
 p   4 1.00
       7.8682724    0.0000000000
       1.8812885    0.0000000000
       0.5442493    0.0000000000
       0.1687144    1.0000000000

    6 0
 s   4 1.00
      18.7311370    0.0334946000
       2.8253937    0.2347269500
       0.6401217    0.8137573300
       0.1612778    0.0000000000
 s   4 1.00
      18.7311370    0.0000000000
       2.8253937    0.0000000000
       0.6401217    0.0000000000
       0.1612778    1.0000000000

    7 0
 s   4 1.00
      18.7311370    0.0334946000
       2.8253937    0.2347269500
       0.6401217    0.8137573300
       0.1612778    0.0000000000
 s   4 1.00
      18.7311370    0.0000000000
       2.8253937    0.0000000000
       0.6401217    0.0000000000
       0.1612778    1.0000000000

    8 0
 s   4 1.00
      18.7311370    0.0334946000
       2.8253937    0.2347269500
       0.6401217    0.8137573300
       0.1612778    0.0000000000
 s   4 1.00
      18.7311370    0.0000000000
       2.8253937    0.0000000000
       0.6401217    0.0000000000
       0.1612778    1.0000000000

    9 0
 s   4 1.00
      18.7311370    0.0334946000
       2.8253937    0.2347269500
       0.6401217    0.8137573300
       0.1612778    0.0000000000
 s   4 1.00
      18.7311370    0.0000000000
       2.8253937    0.0000000000
       0.6401217    0.0000000000
       0.1612778    1.0000000000

   10 0
 s   4 1.00
      18.7311370    0.0334946000
       2.8253937    0.2347269500
       0.6401217    0.8137573300
       0.1612778    0.0000000000
 s   4 1.00
      18.7311370    0.0000000000
       2.8253937    0.0000000000
       0.6401217    0.0000000000
       0.1612778    1.0000000000

   11 0
 s   4 1.00
      18.7311370    0.0334946000
       2.8253937    0.2347269500
       0.6401217    0.8137573300
       0.1612778    0.0000000000
 s   4 1.00
      18.7311370    0.0000000000
       2.8253937    0.0000000000
       0.6401217    0.0000000000
       0.1612778    1.0000000000

[SCFCONV]
scf-first  1  THROUGH  14
     -228.7904548742
     -229.5339805310
     -229.6819930926
     -229.6913394511
     -229.6925525921
     -229.6926844525
     -229.6927089971
     -229.6927127023
     -229.6927135728
     -229.6927138891
     -229.6927139617
     -229.6927139652
     -229.6927139656
     -229.6927139657
[GEOMETRIES] XYZ
   11

O             -2.1027778840         2.7402409835         0.3835688648
C             -1.5200741351         1.6490593214         0.2916935244
C             -0.1255389210         1.4314424954        -0.0914536965
C              0.8858397808         2.3056334256        -0.1971436255
C              0.9356744072         3.8045224236        -0.1038247298
H             -2.0740468801         0.7351289662         0.5143778870
H              1.8432153294         1.8477566212        -0.3860128288
H              0.4394225624         4.3384919791        -0.9408524660
H              1.9584543394         4.1502506020        -0.1342777892
H              0.4808664114         4.1680028113         0.8097581493
H              0.1191449896         0.3907303707        -0.2083632896
   11

O             -2.1027778840         2.7402409835         0.3835688648
C             -1.5200741351         1.6490593214         0.2916935244
C             -0.1255389210         1.4314424954        -0.0914536965
C              0.8858397808         2.3056334256        -0.1971436255
C              0.9356744072         3.8045224236        -0.1038247298
H             -2.0740468801         0.7351289662         0.5143778870
H              1.8432153294         1.8477566212        -0.3860128288
H              0.4394225624         4.3384919791        -0.9408524660
H              1.9584543394         4.1502506020        -0.1342777892
H              0.4808664114         4.1680028113         0.8097581493
H              0.1191449896         0.3907303707        -0.2083632896
   11

O             -1.7833135631         2.9524371219         0.3779162428
C             -1.4164482432         1.7694807946         0.2552755256
C             -0.0334775223         1.3638342270        -0.0522726197
C              0.9623677768         2.2390785872        -0.1967230807
C              0.8331185151         3.7406247589        -0.0842996782
H             -2.1528952118         0.9507298135         0.3802238917
H              1.9456524981         1.8495948099        -0.4094347410
H              0.1424934739         4.1429991970        -0.8520122950
H              1.8071914642         4.2265721150        -0.1914370324
H              0.3864675627         4.0168740912         0.8670333691
H              0.1490232497         0.3090344839        -0.1567995822
   11

O             -1.9090308693         2.8352601594         0.5112090474
C             -1.4588432827         1.7200607755         0.3028130689
C             -0.0696675047         1.4039907361        -0.0337302881
C              0.9267658997         2.2758585813        -0.2116737881
C              0.8796070550         3.7725981390        -0.1064238725
H             -2.1250653490         0.8650013374         0.3607885530
H              1.8854052420         1.8584464099        -0.4682642383
H              0.3586554379         4.1961669739        -0.9557134912
H              1.8803566458         4.1831999462        -0.0787534103
H              0.3348973343         4.0943360684         0.7700202959
H              0.1370993911         0.3563408729        -0.1528018767
   11

O             -1.9161448576         2.8630748737         0.3196379808
C             -1.4527078052         1.7350874460         0.2665952511
C             -0.0681040132         1.3974473543        -0.0656721713
C              0.9346571964         2.2669184593        -0.2050401681
C              0.8702226123         3.7621970491        -0.0837580074
H             -2.0970886629         0.8890740710         0.4830079466
H              1.9030682817         1.8551940309        -0.4311745323
H              0.2529243021         4.1861292652        -0.8646008075
H              1.8594689387         4.1936504691        -0.1554678221
H              0.4219336972         4.0645620926         0.8536862674
H              0.1319503106         0.3479248887        -0.1797439371
   11

O             -1.8779833598         2.8762036699         0.4098981078
C             -1.4445932080         1.7380475338         0.2786328318
C             -0.0610214483         1.3922776144        -0.0466808254
C              0.9369291231         2.2644723836        -0.2064990347
C              0.8633724455         3.7600328395        -0.0930194605
H             -2.1193319665         0.8929886950         0.4072519523
H              1.9040426244         1.8573103777        -0.4465305607
H              0.2694502900         4.1780804957        -0.8988517973
H              1.8530309763         4.1954466522        -0.1335258786
H              0.3786441756         4.0639058999         0.8257242999
H              0.1376403477         0.3424938383        -0.1589296344
   11

O             -1.8758863976         2.8751093550         0.4046864516
C             -1.4431638673         1.7397272834         0.2773217129
C             -0.0601458986         1.3915711224        -0.0465769653
C              0.9376438260         2.2636170463        -0.2067197014
C              0.8621542542         3.7588214829        -0.0919244471
H             -2.1177075934         0.9001988989         0.4079372894
H              1.9046986765         1.8570753267        -0.4474528423
H              0.2647055997         4.1763074280        -0.8945976961
H              1.8500360961         4.1964806287        -0.1357661507
H              0.3798919256         4.0608100757         0.8277062706
H              0.1379533789         0.3415413521        -0.1571439215
   11

O             -1.8760759020         2.8763089665         0.3981815336
C             -1.4428235569         1.7399996752         0.2764895077
C             -0.0601845585         1.3912707323        -0.0480728806
C              0.9377910999         2.2633532975        -0.2068406542
C              0.8618432242         3.7584653333        -0.0911104896
H             -2.1165837826         0.9008912990         0.4137013102
H              1.9050820098         1.8570280800        -0.4469489811
H              0.2629042021         4.1762996794        -0.8925607141
H              1.8493826864         4.1966548991        -0.1362594126
H              0.3810167257         4.0597538955         0.8295602785
H              0.1378278519         0.3412341423        -0.1586694978
   11

O             -1.8758686918         2.8754817799         0.4038684146
C             -1.4430849578         1.7396663615         0.2772811632
C             -0.0601929735         1.3914781058        -0.0469705895
C              0.9376396596         2.2635744642        -0.2067276465
C              0.8620962713         3.7587736358        -0.0918022338
H             -2.1175511167         0.9001702809         0.4091180858
H              1.9047407721         1.8570784845        -0.4473493792
H              0.2647727923         4.1763709610        -0.8946044197
H              1.8499528107         4.1964610213        -0.1354901637
H              0.3797128021         4.0607324067         0.8277906668
H              0.1379626317         0.3414724985        -0.1576438979
[GEOCONV]
energy
     -229.6927139657
     -229.6927139657
     -229.6957638461
     -229.6982534609
     -229.6983361111
     -229.6985080136
     -229.6985382519
     -229.6985379236
     -229.6985384601
[TITLE]
*** Dalton interface to Molden, wave function type : HF            26Mar24   12:
[Atoms] AU
O          1     8        -3.5448780740         5.4338730414         0.763200694
C          2     6        -2.7270353454         3.2874929721         0.523985458
C          3     6        -0.1137482346         2.6295125288        -0.088761550
C          4     6         1.7718821605         4.2775358008        -0.390658634
C          5     6         1.6291258462         7.1030527375        -0.173481079
H          6     1        -4.0015916663         1.7010752967         0.773121134
H          7     1         3.5994383984         3.5093697284        -0.845367808
H          8     1         0.5003480628         7.8921973126        -1.690557343
H          9     1         3.4959041564         7.9301620244        -0.256039302
H         10     1         0.7175532022         7.6736721156         1.564297649
H         11     1         0.2607115894         0.6452895013        -0.297903792
[5D7F]
[9G]
[MO]
Sym= A
Ene=  -20.5625
Spin= Alpha
Occup=  2.0000
    1        0.995877
    2        0.023040
    3       -0.013841
    4        0.000880
    5       -0.002145
    6       -0.000244
    7       -0.001877
    8        0.004108
    9        0.000512
   10        0.000146
   11        0.000167
   12        0.006055
   13       -0.000131
   14       -0.000077
   15        0.000028
   16       -0.000770
   17        0.006731
   18        0.000374
   19        0.000049
   20        0.000307
   21       -0.002656
   22        0.000255
   23        0.000100
   24       -0.000051
   25       -0.002036
   26       -0.003745
   27        0.000261
   28       -0.000008
   29       -0.000057
   30        0.003616
   31       -0.000095
   32       -0.000082
   33        0.000020
   34       -0.001208
   35       -0.001048
   36        0.000183
   37       -0.000003
   38       -0.000112
   39        0.000116
   40        0.000121
   41        0.000066
   43       -0.000205
   44       -0.000068
   45       -0.000058
   46        0.000076
   47        0.001233
   48       -0.000090
   49       -0.000011
   50       -0.000026
   51       -0.000165
   52       -0.000021
   53        0.000259
   54       -0.000060
   55       -0.000031
   56       -0.000264
   57       -0.000892
Sym= A
Ene=  -11.3382
Spin= Alpha
Occup=  2.0000
    1        0.000348
    2       -0.000312
    3        0.000735
    4       -0.000095
    5        0.000296
    6        0.000025
    7        0.000192
    8       -0.001134
    9       -0.000057
   10       -0.996157
   11       -0.024303
   12        0.012251
   13        0.000272
   14       -0.000898
   15       -0.000085
   16        0.001909
   17       -0.002411
   18       -0.000517
   19       -0.003895
   20        0.000417
   21       -0.003276
   22       -0.000240
   23       -0.000040
   24        0.000047
   25        0.003483
   26        0.001152
   27       -0.000686
   28        0.000064
   29        0.000263
   30       -0.001752
   31       -0.000112
   32        0.000007
   33        0.000026
   34        0.001133
   35        0.000840
   36       -0.000210
   37        0.000052
   38        0.000144
   39       -0.000242
   40       -0.000089
   41       -0.000094
   42        0.000002
   43        0.000089
   44        0.000318
   45        0.000080
   46        0.000085
   47       -0.002804
   48       -0.000013
   49       -0.000425
   50        0.000046
   51        0.000012
   52        0.000014
   53       -0.000197
   54        0.000061
   55       -0.000115
   56        0.000253
   57        0.000454
Sym= A
Ene=  -11.2748
Spin= Alpha
Occup=  2.0000
    2        0.000030
    3       -0.000226
    4        0.000004
    5       -0.000022
    6       -0.000002
    7        0.000019
    8        0.000165
    9       -0.000002
   10        0.000061
   11        0.000172
   12        0.000981
   13        0.000183
   14        0.000033
   15       -0.000041
   16        0.000089
   17        0.000143
   18        0.000001
   19       -0.023409
   20        0.000417
   21       -0.006345
   22        0.000146
   23        0.000221
   24       -0.000015
   25       -0.001289
   26       -0.002993
   27        0.000065
   28       -0.995904
   29       -0.024841
   30        0.017805
   31        0.000137
   32        0.000105
   33       -0.000025
   34       -0.002059
   35        0.000662
   36        0.000534
   37       -0.006404
   38        0.000286
   39       -0.003989
   40        0.000096
   41       -0.000118
   42        0.000004
   43       -0.000147
   44        0.002560
   45       -0.000006
   46       -0.000040
   47       -0.000246
   48        0.000213
   49       -0.002238
   50        0.000194
   51       -0.000638
   52        0.000101
   53        0.000035
   54        0.000199
   55       -0.000366
   56        0.000035
   57       -0.000580
Sym= A
Ene=  -11.2404
Spin= Alpha
Occup=  2.0000
    1       -0.000018
    2       -0.000130
    3        0.001485
    4        0.000030
    5       -0.000035
    6       -0.000013
    7        0.000428
    8       -0.000349
    9       -0.000084
   10        0.004131
   11        0.000780
   12       -0.006342
   13        0.000203
   14       -0.000091
   15       -0.000049
   16       -0.002944
   17       -0.001164
   18        0.000605
   19       -0.995860
   20       -0.025421
   21        0.019386
   22        0.000039
   23       -0.000374
   24       -0.000041
   25       -0.000368
   26        0.004143
   27        0.000353
   28        0.024009
   29        0.001657
   30       -0.008625
   31       -0.000198
   32       -0.000093
   33        0.000038
   34        0.003594
   35        0.000629
   36       -0.000756
   37        0.001116
   38        0.000012
   39        0.001673
   40       -0.000045
   41       -0.000203
   42       -0.000011
   43       -0.000162
   44       -0.000540
   45        0.000060
   46        0.000035
   47       -0.000531
   48        0.000037
   49       -0.000477
   50       -0.000026
   51       -0.000046
   52       -0.000061
   53       -0.000233
   54       -0.000035
   55       -0.000118
   56        0.000369
   57       -0.001511
Sym= A
Ene=  -11.2249
Spin= Alpha
Occup=  2.0000
    1        0.000004
    2        0.000127
    3       -0.000313
    4        0.000076
    5        0.000015
    6       -0.000028
    7       -0.000214
    8        0.000100
    9        0.000090
   10       -0.000037
   11        0.000107
   12        0.000038
   13        0.000045
   14        0.000122
   15       -0.000013
   16       -0.000156
   17        0.000090
   18        0.000046
   19       -0.000968
   20        0.000167
   21       -0.000448
   22        0.000063
   23        0.000149
   24       -0.000004
   25       -0.000528
   26       -0.000495
   27        0.000082
   28        0.006599
   29        0.000630
   30       -0.004181
   31        0.000021
   32        0.000179
   33        0.000010
   34       -0.000175
   35       -0.002952
   36       -0.000146
   37       -0.996176
   38       -0.026131
   39        0.019135
   40       -0.000022
   41        0.000210
   42        0.000063
   43       -0.000099
   44       -0.001182
   45       -0.000170
   46        0.000020
   47       -0.000128
   48        0.000132
   49       -0.000055
   50       -0.000083
   51       -0.003280
   52       -0.000036
   53       -0.003130
   54       -0.000093
   55       -0.003192
   56       -0.000027
   57       -0.000386
Sym= A
Ene=   -1.3999
Spin= Alpha
Occup=  2.0000
    1        0.195364
    2       -0.427989
    3       -0.446371
    4       -0.057697
    5        0.144159
    6        0.016575
    7       -0.028511
    8        0.064760
    9        0.007841
   10        0.113675
   11       -0.231135
   12       -0.039544
   13        0.056240
   14       -0.166525
   15       -0.017009
   16       -0.011586
   17        0.069506
   18        0.004521
   19        0.019712
   20       -0.037697
   21       -0.026598
   22        0.023786
   23       -0.013814
   24       -0.005912
   25       -0.016827
   26       -0.029196
   27        0.002531
   28        0.006891
   29       -0.012993
   30        0.021751
   31        0.007486
   32        0.001999
   33       -0.001423
   34       -0.007220
   35       -0.006082
   36        0.000827
   37        0.003060
   38       -0.004652
   39       -0.005035
   40        0.001868
   41        0.002255
   42       -0.000333
   43        0.004486
   44        0.003872
   45       -0.000179
   46       -0.028619
   47        0.016512
   48       -0.001895
   49       -0.000627
   50       -0.001217
   51       -0.001202
   52       -0.000960
   53       -0.001777
   54       -0.002036
   55       -0.001957
   56       -0.006205
   57       -0.004272
Sym= A
Ene=   -1.1003
Spin= Alpha
Occup=  2.0000
    1       -0.036007
    2        0.079698
    3        0.100918
    4       -0.016071
    5       -0.012190
    6        0.003143
    7       -0.002240
    8       -0.007111
    9        0.000087
   10        0.034085
   11       -0.073533
   12       -0.052389
   13       -0.089396
   14        0.052185
   15        0.021327
   16       -0.013184
   17       -0.006292
   18        0.002613
   19        0.136149
   20       -0.268025
   21       -0.181286
   22       -0.049063
   23       -0.067914
   24        0.006045
   25        0.000088
   26        0.006082
   27        0.000012
   28        0.148161
   29       -0.297943
   30       -0.198103
   31        0.067035
   32        0.026161
   33       -0.012758
   34        0.001096
   35        0.001616
   36        0.000007
   37        0.086852
   38       -0.164495
   39       -0.145198
   40        0.002272
   41        0.057456
   42        0.003633
   43        0.000575
   44        0.005107
   45        0.000558
   46       -0.017914
   47       -0.006073
   48       -0.077004
   49       -0.010954
   50       -0.044771
   51       -0.000200
   52       -0.042416
   53       -0.002035
   54       -0.044633
   55       -0.000258
   56       -0.066836
   57       -0.006194
Sym= A
Ene=   -0.9796
Spin= Alpha
Occup=  2.0000
    1       -0.038644
    2        0.087580
    3        0.110179
    4       -0.013277
    5        0.021453
    6        0.004046
    7       -0.003767
    8        0.008837
    9        0.001576
   10        0.071285
   11       -0.155623
   12       -0.111360
   13       -0.086884
   14        0.084705
   15        0.022218
   16       -0.013636
   17        0.018943
   18        0.003659
   19        0.108557
   20       -0.214622
   21       -0.172703
   22        0.052653
   23        0.016435
   24       -0.010786
   25        0.013516
   26        0.006235
   27       -0.002599
   28       -0.029356
   29        0.061034
   30        0.031637
   31        0.064981
   32        0.147747
   33       -0.004613
   34        0.007731
   35        0.019646
   36       -0.000452
   37       -0.150037
   38        0.284052
   39        0.296274
   40        0.009282
   41       -0.009385
   42       -0.003660
   43        0.004226
   44       -0.005417
   45       -0.002170
   46       -0.057490
   47       -0.015208
   48        0.024723
   49        0.009585
   50        0.096718
   51        0.018358
   52        0.102723
   53        0.022563
   54        0.095164
   55        0.017950
   56       -0.080844
   57       -0.024687
Sym= A
Ene=   -0.8690
Spin= Alpha
Occup=  2.0000
    1       -0.059369
    2        0.136456
    3        0.175101
    4       -0.019482
    5        0.068600
    6        0.006078
    7       -0.010770
    8        0.031032
    9        0.003049
   10        0.114576
   11       -0.251774
   12       -0.217992
   13       -0.036970
   14        0.142729
   15        0.012348
   16       -0.008006
   17        0.061969
   18        0.003564
   19       -0.003678
   20        0.004319
   21        0.010924
   22        0.227809
   23        0.059714
   24       -0.046318
   25        0.041329
   26       -0.000413
   27       -0.009138
   28       -0.096450
   29        0.195523
   30        0.192493
   31        0.001115
   32       -0.136567
   33       -0.009675
   34        0.014680
   35       -0.021167
   36       -0.004545
   37        0.084371
   38       -0.159874
   39       -0.198136
   40        0.004977
   41       -0.071928
   42       -0.004941
   43       -0.010087
   44       -0.015289
   45        0.000019
   46       -0.136013
   47       -0.044847
   48        0.104453
   49        0.037429
   50       -0.074350
   51       -0.023686
   52       -0.074471
   53       -0.019668
   54       -0.073904
   55       -0.021202
   56       -0.003995
   57       -0.007411
Sym= A
Ene=   -0.7470
Spin= Alpha
Occup=  2.0000
    1       -0.037472
    2        0.087343
    3        0.117506
    4        0.115010
    5        0.172827
    6       -0.021112
    7        0.054935
    8        0.087372
    9       -0.009833
   10        0.062195
   11       -0.140951
   12       -0.125509
   13        0.250926
   14        0.101903
   15       -0.054130
   16        0.090112
   17        0.090367
   18       -0.017688
   19       -0.070521
   20        0.145203
   21        0.122963
   22       -0.038612
   23        0.009426
   24        0.007933
   25       -0.021471
   26       -0.045483
   27        0.001763
   28        0.071454
   29       -0.148146
   30       -0.138039
   31       -0.196535
   32       -0.017799
   33        0.041535
   34       -0.093902
   35       -0.003984
   36        0.019981
   37       -0.025354
   38        0.048321
   39        0.062632
   40       -0.080235
   41        0.095762
   42        0.024433
   43       -0.023269
   44        0.030911
   45        0.007545
   46       -0.179794
   47       -0.075068
   48       -0.164675
   49       -0.077936
   50        0.055513
   51        0.031948
   52        0.002949
   53       -0.004128
   54        0.067593
   55        0.038785
   56        0.058992
   57        0.008810
Sym= A
Ene=   -0.6909
Spin= Alpha