[Molden Format]
[GTO]
    1 0
 s   9 1.00
   11720.0000000    0.0007100000
    1759.0000000    0.0054700000
     400.8000000    0.0278370000
     113.7000000    0.1048000000
      37.0300000    0.2830620000
      13.2700000    0.4487190000
       5.0250000    0.2709520000
       1.0130000    0.0154580000
       0.3023000   -0.0025850000
 s   9 1.00
   11720.0000000   -0.0001600000
    1759.0000000   -0.0012630000
     400.8000000   -0.0062670000
     113.7000000   -0.0257160000
      37.0300000   -0.0709240000
      13.2700000   -0.1654110000
       5.0250000   -0.1169550000
       1.0130000    0.5573680000
       0.3023000    0.5727590000
 s   9 1.00
   11720.0000000    0.0000000000
    1759.0000000    0.0000000000
     400.8000000    0.0000000000
     113.7000000    0.0000000000
      37.0300000    0.0000000000
      13.2700000    0.0000000000
       5.0250000    0.0000000000
       1.0130000    0.0000000000
       0.3023000    1.0000000000
 p   4 1.00
      17.7000000    0.0430180000
       3.8540000    0.2289130000
       1.0460000    0.5087280000
       0.2753000    0.4605310000
 p   4 1.00
      17.7000000    0.0000000000
       3.8540000    0.0000000000
       1.0460000    0.0000000000
       0.2753000    1.0000000000
 d   1 1.00
       1.1850000    1.0000000000

    2 0
 s   4 1.00
      13.0100000    0.0196850000
       1.9620000    0.1379770000
       0.4446000    0.4781480000
       0.1220000    0.5012400000
 s   4 1.00
      13.0100000    0.0000000000
       1.9620000    0.0000000000
       0.4446000    0.0000000000
       0.1220000    1.0000000000
 p   1 1.00
       0.7270000    1.0000000000

    3 0
 s   4 1.00
      13.0100000    0.0196850000
       1.9620000    0.1379770000
       0.4446000    0.4781480000
       0.1220000    0.5012400000
 s   4 1.00
      13.0100000    0.0000000000
       1.9620000    0.0000000000
       0.4446000    0.0000000000
       0.1220000    1.0000000000
 p   1 1.00
       0.7270000    1.0000000000

[SCFCONV]
scf-first  1  THROUGH  10
      -75.8501806543
      -76.0170028846
      -76.0259539163
      -76.0267038510
      -76.0267353089
      -76.0267413656
      -76.0267418916
      -76.0267418985
      -76.0267418987
      -76.0267418987
[TITLE]
*** Dalton interface to Molden, wave function type : CC            26Mar24   12:
[Atoms] AU
O          1     8         0.0000000000         0.0000000000         0.124144424
H          2     1         0.0000000000         1.4315300000        -0.985265576
H          3     1         0.0000000000        -1.4315300000        -0.985265576
[5D7F]
[9G]
[MO]
Sym= A
Ene=  -20.5507
Spin= Alpha
Occup=  2.0000
    1       -1.000398
    2       -0.002296
    3        0.001402
    6        0.002565
    9       -0.001668
   10       -0.000011
   13        0.000136
   15        0.000400
   16       -0.000622
   18       -0.000568
   19        0.000480
   20        0.000400
   21       -0.000622
   23        0.000568
   24        0.000480
Sym= A
Ene=   -1.3362
Spin= Alpha
Occup=  2.0000
    1        0.008163
    2       -0.870627
    3        0.122224
    6        0.114626
    9       -0.065729
   10       -0.001248
   13        0.003000
   15       -0.328721
   16        0.154657
   18        0.037245
   19       -0.020476
   20       -0.328721
   21        0.154657
   23       -0.037245
   24       -0.020476
Sym= A
Ene=   -0.6986
Spin= Alpha
Occup=  2.0000
    5       -0.713747
    8        0.106397
   12        0.026775
   15       -0.557703
   16        0.189507
   18        0.023302
   19       -0.032662
   20        0.557703
   21       -0.189507
   23        0.023302
   24        0.032662
Sym= A
Ene=   -0.5665
Spin= Alpha
Occup=  2.0000
    1        0.002169
    2       -0.295539
    3       -0.180332
    6       -0.794531
    9        0.000620
   10        0.017867
   13       -0.004592
   15        0.351408
   16       -0.135591
   18       -0.031767
   19       -0.007485
   20        0.351408
   21       -0.135591
   23        0.031767
   24       -0.007485
Sym= A
Ene=   -0.4931
Spin= Alpha
Occup=  2.0000
    4        0.919711
    7        0.072136
   11       -0.018196
   17        0.031039
   22        0.031039
Sym= A
Ene=    0.1854
Spin= Alpha
Occup=  0.0000
    1        0.052021
    2       -0.142665
    3       -0.919692
    6        0.278243
    9        0.209430
   10       -0.007545
   13        0.009925
   15        0.100594
   16        0.778366
   18       -0.017457
   19        0.016285
   20        0.100594
   21        0.778366
   23        0.017457
   24        0.016285
Sym= A
Ene=    0.2561
Spin= Alpha
Occup=  0.0000
    5       -0.413102
    8       -0.480651
   12        0.021176
   15        0.044654
   16        1.420241
   18       -0.020752
   19        0.017059
   20       -0.044654
   21       -1.420241
   23       -0.020752
   24       -0.017059
Sym= A
Ene=    0.7883
Spin= Alpha
Occup=  0.0000
    5        0.390624
    8        0.279390
   12        0.111628
   15       -1.606819
   16        1.493427
   18       -0.073701
   19        0.152451
   20        1.606819
   21       -1.493427
   23       -0.073701
   24       -0.152451
Sym= A
Ene=    0.8535
Spin= Alpha
Occup=  0.0000
    1        0.065449
    2        0.503623
    3       -0.608943
    6       -0.480278
    9        0.230713
   10       -0.001028
   13        0.106875
   15       -1.341143
   16        1.220740
   18       -0.295299
   19        0.059389
   20       -1.341143
   21        1.220740
   23        0.295299
   24        0.059389
Sym= A
Ene=    1.1636
Spin= Alpha
Occup=  0.0000
    1        0.003301
    2        0.226224
    3        0.616429
    6        1.099266
    9       -1.784034
   10        0.012909
   13        0.006842
   15       -0.928413
   16        0.352585
   18        0.083736
   19       -0.251582
   20       -0.928413
   21        0.352585
   23       -0.083736
   24       -0.251582
Sym= A
Ene=    1.2004
Spin= Alpha
Occup=  0.0000
    4       -1.410173
    7        1.673736
   11        0.003445
   17        0.009226
   22        0.009226
Sym= A
Ene=    1.2534
Spin= Alpha
Occup=  0.0000
    5       -1.070511
    8        2.255868
   12       -0.044318
   15       -0.644212
   16       -0.501033
   18        0.302619
   19       -0.186506
   20        0.644212
   21        0.501033
   23        0.302619
   24        0.186506
Sym= A
Ene=    1.4442
Spin= Alpha
Occup=  0.0000
    1       -0.201404
    2       -1.038070
    3        1.096846
    6       -0.194090
    9        0.830727
   10        0.117476
   13        0.005042
   15        0.568924
   16       -0.493918
   18       -0.330699
   19       -0.544471
   20        0.568924
   21       -0.493918
   23        0.330699
   24       -0.544471
Sym= A
Ene=    1.4762
Spin= Alpha
Occup=  0.0000
   14       -0.131443
   17       -0.685559
   22        0.685559
Sym= A
Ene=    1.6741
Spin= Alpha
Occup=  0.0000
    4       -0.026478
    7       -0.622086
   11       -0.160853
   17        0.766799
   22        0.766799
Sym= A
Ene=    1.8674
Spin= Alpha
Occup=  0.0000
    1       -0.724627
    2       -3.133420
    3        4.825574
    6       -0.157818
    9       -0.895133
   10       -0.114112
   13        0.108232
   15       -1.407829
   16        0.317922
   18        0.372545
   19        0.022443
   20       -1.407829
   21        0.317922
   23       -0.372545
   24        0.022443
Sym= A
Ene=    1.9340
Spin= Alpha
Occup=  0.0000
    5       -0.015083
    8        0.907366
   12        0.029324
   15       -0.658558
   16        0.238702
   18       -0.471080
   19       -0.693340
   20        0.658558
   21       -0.238702
   23       -0.471080
   24        0.693340
Sym= A
Ene=    2.4500
Spin= Alpha
Occup=  0.0000
    5        1.220690
    8       -0.410233
   12        0.137998
   15       -0.499539
   16       -0.079774
   18        0.724105
   19       -0.554346
   20        0.499539
   21        0.079774
   23        0.724105
   24        0.554346
Sym= A
Ene=    2.4877
Spin= Alpha
Occup=  0.0000
    1       -0.275993
    2       -1.424757
    3        0.020629
    6        0.974818
    9       -0.268496
   10        0.052914
   13       -0.216856
   15        0.813122
   16       -0.248273
   18       -0.744116
   19        0.537255
   20        0.813122
   21       -0.248273
   23        0.744116
   24        0.537255
Sym= A
Ene=    3.2850
Spin= Alpha
Occup=  0.0000
    4        0.017436
    7       -0.319080
   11        1.042568
   17        0.397735
   22        0.397735
Sym= A
Ene=    3.3376
Spin= Alpha
Occup=  0.0000
   14        1.065786
   17       -0.370759
   22        0.370759
Sym= A
Ene=    3.5093
Spin= Alpha
Occup=  0.0000
    1       -0.084040
    2       -0.302844
    3        0.728164
    6       -0.026432
    9       -0.523950
   10        1.083870
   13        0.177673
   15       -0.518149
   16        0.222205
   18        0.351537
   19        0.315069
   20       -0.518149
   21        0.222205
   23       -0.351537
   24        0.315069
Sym= A
Ene=    3.8642
Spin= Alpha
Occup=  0.0000
    1       -0.144385
    2       -0.352339
    3        2.467813
    6       -0.587668
    9       -0.651584
   10        0.137474
   13       -1.159043
   15       -2.102673
   16        0.862208
   18        0.620328
   19       -0.492462
   20       -2.102673
   21        0.862208
   23       -0.620328
   24       -0.492462
Sym= A
Ene=    4.1466
Spin= Alpha
Occup=  0.0000
    5       -0.680096
    8       -0.829576
   12        1.325183
   15        1.843520
   16       -0.635777
   18       -0.605080
   19        0.493804
   20       -1.843520
   21        0.635777
   23       -0.605080
   24       -0.493804
[End of Molden output from Dalton]
