[Molden Format]
[GTO]
    1 0
 s  10 1.00
    3047.5249000    0.0018347000
     457.3695100    0.0140373000
     103.9486900    0.0688426000
      29.2101550    0.2321844000
       9.2866630    0.4679413000
       3.1639270    0.3623120000
       7.8682724    0.0000000000
       1.8812885    0.0000000000
       0.5442493    0.0000000000
       0.1687144    0.0000000000
 s  10 1.00
    3047.5249000    0.0000000000
     457.3695100    0.0000000000
     103.9486900    0.0000000000
      29.2101550    0.0000000000
       9.2866630    0.0000000000
       3.1639270    0.0000000000
       7.8682724   -0.1193324000
       1.8812885   -0.1608542000
       0.5442493    1.1434564000
       0.1687144    0.0000000000
 s  10 1.00
    3047.5249000    0.0000000000
     457.3695100    0.0000000000
     103.9486900    0.0000000000
      29.2101550    0.0000000000
       9.2866630    0.0000000000
       3.1639270    0.0000000000
       7.8682724    0.0000000000
       1.8812885    0.0000000000
       0.5442493    0.0000000000
       0.1687144    1.0000000000
 p   4 1.00
       7.8682724    0.0689991000
       1.8812885    0.3164240000
       0.5442493    0.7443083000
       0.1687144    0.0000000000
 p   4 1.00
       7.8682724    0.0000000000
       1.8812885    0.0000000000
       0.5442493    0.0000000000
       0.1687144    1.0000000000

    2 0
 s  10 1.00
    3047.5249000    0.0018347000
     457.3695100    0.0140373000
     103.9486900    0.0688426000
      29.2101550    0.2321844000
       9.2866630    0.4679413000
       3.1639270    0.3623120000
       7.8682724    0.0000000000
       1.8812885    0.0000000000
       0.5442493    0.0000000000
       0.1687144    0.0000000000
 s  10 1.00
    3047.5249000    0.0000000000
     457.3695100    0.0000000000
     103.9486900    0.0000000000
      29.2101550    0.0000000000
       9.2866630    0.0000000000
       3.1639270    0.0000000000
       7.8682724   -0.1193324000
       1.8812885   -0.1608542000
       0.5442493    1.1434564000
       0.1687144    0.0000000000
 s  10 1.00
    3047.5249000    0.0000000000
     457.3695100    0.0000000000
     103.9486900    0.0000000000
      29.2101550    0.0000000000
       9.2866630    0.0000000000
       3.1639270    0.0000000000
       7.8682724    0.0000000000
       1.8812885    0.0000000000
       0.5442493    0.0000000000
       0.1687144    1.0000000000
 p   4 1.00
       7.8682724    0.0689991000
       1.8812885    0.3164240000
       0.5442493    0.7443083000
       0.1687144    0.0000000000
 p   4 1.00
       7.8682724    0.0000000000
       1.8812885    0.0000000000
       0.5442493    0.0000000000
       0.1687144    1.0000000000

    3 0
 s  10 1.00
    3047.5249000    0.0018347000
     457.3695100    0.0140373000
     103.9486900    0.0688426000
      29.2101550    0.2321844000
       9.2866630    0.4679413000
       3.1639270    0.3623120000
       7.8682724    0.0000000000
       1.8812885    0.0000000000
       0.5442493    0.0000000000
       0.1687144    0.0000000000
 s  10 1.00
    3047.5249000    0.0000000000
     457.3695100    0.0000000000
     103.9486900    0.0000000000
      29.2101550    0.0000000000
       9.2866630    0.0000000000
       3.1639270    0.0000000000
       7.8682724   -0.1193324000
       1.8812885   -0.1608542000
       0.5442493    1.1434564000
       0.1687144    0.0000000000
 s  10 1.00
    3047.5249000    0.0000000000
     457.3695100    0.0000000000
     103.9486900    0.0000000000
      29.2101550    0.0000000000
       9.2866630    0.0000000000
       3.1639270    0.0000000000
       7.8682724    0.0000000000
       1.8812885    0.0000000000
       0.5442493    0.0000000000
       0.1687144    1.0000000000
 p   4 1.00
       7.8682724    0.0689991000
       1.8812885    0.3164240000
       0.5442493    0.7443083000
       0.1687144    0.0000000000
 p   4 1.00
       7.8682724    0.0000000000
       1.8812885    0.0000000000
       0.5442493    0.0000000000
       0.1687144    1.0000000000

    4 0
 s   4 1.00
      18.7311370    0.0334946000
       2.8253937    0.2347269500
       0.6401217    0.8137573300
       0.1612778    0.0000000000
 s   4 1.00
      18.7311370    0.0000000000
       2.8253937    0.0000000000
       0.6401217    0.0000000000
       0.1612778    1.0000000000

    5 0
 s   4 1.00
      18.7311370    0.0334946000
       2.8253937    0.2347269500
       0.6401217    0.8137573300
       0.1612778    0.0000000000
 s   4 1.00
      18.7311370    0.0000000000
       2.8253937    0.0000000000
       0.6401217    0.0000000000
       0.1612778    1.0000000000

    6 0
 s   4 1.00
      18.7311370    0.0334946000
       2.8253937    0.2347269500
       0.6401217    0.8137573300
       0.1612778    0.0000000000
 s   4 1.00
      18.7311370    0.0000000000
       2.8253937    0.0000000000
       0.6401217    0.0000000000
       0.1612778    1.0000000000

    7 0
 s   4 1.00
      18.7311370    0.0334946000
       2.8253937    0.2347269500
       0.6401217    0.8137573300
       0.1612778    0.0000000000
 s   4 1.00
      18.7311370    0.0000000000
       2.8253937    0.0000000000
       0.6401217    0.0000000000
       0.1612778    1.0000000000

    8 0
 s   4 1.00
      18.7311370    0.0334946000
       2.8253937    0.2347269500
       0.6401217    0.8137573300
       0.1612778    0.0000000000
 s   4 1.00
      18.7311370    0.0000000000
       2.8253937    0.0000000000
       0.6401217    0.0000000000
       0.1612778    1.0000000000

[SCFCONV]
scf-first  1  THROUGH  13
     -115.4291805368
     -116.0354680948
     -116.0860200274
     -116.0937978820
     -116.0957639997
     -116.0963040373
     -116.0963493400
     -116.0963542607
     -116.0963543675
     -116.0963543722
     -116.0963543736
     -116.0963543749
     -116.0963543751
[GEOMETRIES] XYZ
    8

C             -8.9537900000         0.3200300000        -0.0044400000
C             -7.7946600000        -0.2715300000        -0.0036800000
C             -6.4776300000         0.4302300000        -0.0005200000
H             -5.8696100000         0.0875300000        -0.8432900000
H             -5.9377100000         0.2086500000         0.9250700000
H             -6.5935500000         1.5158300000        -0.0808100000
H             -9.9030600000         0.8059000000        -0.0041500000
H             -7.7689100000        -1.3576800000         0.0118300000
    8

C             -8.9537900000         0.3200300000        -0.0044400000
C             -7.7946600000        -0.2715300000        -0.0036800000
C             -6.4776300000         0.4302300000        -0.0005200000
H             -5.8696100000         0.0875300000        -0.8432900000
H             -5.9377100000         0.2086500000         0.9250700000
H             -6.5935500000         1.5158300000        -0.0808100000
H             -9.9030600000         0.8059000000        -0.0041500000
H             -7.7689100000        -1.3576800000         0.0118300000
    8

C             -8.9451384553         0.3043647714        -0.0016405781
C             -7.8017404176        -0.2656596244         0.0228236508
C             -6.4716376436         0.4510992397         0.0013194405
H             -5.8950863479         0.0848081321        -0.8419730518
H             -5.9338429800         0.2047997385         0.9114061225
H             -6.5566978496         1.5279178782        -0.0741106459
H             -9.9010006339         0.7825738459        -0.0219712056
H             -7.7937756721        -1.3509439815         0.0041562677
    8

C             -8.9435095600         0.3008966781        -0.0102743700
C             -7.8036655870        -0.2629822727        -0.0108195581
C             -6.4665015479         0.4560796332        -0.0043585372
H             -5.8847079960         0.0943017199        -0.8422952108
H             -5.9472370667         0.1936255334         0.9090802775
H             -6.5490810955         1.5300265288        -0.0674635692
H             -9.9018358620         0.7760893645        -0.0088993986
H             -7.8023812849        -1.3490771851         0.0350403664
    8

C             -8.9450077835         0.3021302801        -0.0088054169
C             -7.8046729598        -0.2582149609         0.0070667075
C             -6.4560552375         0.4553290638        -0.0015976269
H             -5.8901118713         0.0955092516        -0.8490955414
H             -5.9317665940         0.1918025908         0.9067675384
H             -6.5579768593         1.5252634498        -0.0628623860
H             -9.9051397454         0.7721946837        -0.0225191104
H             -7.8081889493        -1.3450543589         0.0310558357
    8

C             -8.9490125792         0.3026001760        -0.0102705422
C             -7.8056822586        -0.2546118973         0.0098269219
C             -6.4517277970         0.4557005966        -0.0011946388
H             -5.8924266027         0.0965784249        -0.8534010216
H             -5.9265331144         0.1868240560         0.9048451580
H             -6.5528243284         1.5263090162        -0.0582730135
H             -9.9114925330         0.7664014424        -0.0274925177
H             -7.8092207867        -1.3408418148         0.0359696539
    8

C             -8.9513189059         0.3028823574        -0.0120777567
C             -7.8063725858        -0.2511965258         0.0108650934
C             -6.4493614330         0.4560081758        -0.0011879327
H             -5.8946462713         0.0983256157        -0.8572064366
H             -5.9228526041         0.1814005531         0.9023503933
H             -6.5481279335         1.5274479414        -0.0534265907
H             -9.9162109575         0.7611744279        -0.0317273135
H             -7.8100293088        -1.3370825455         0.0424205437
    8

C             -8.9524421084         0.3033286302        -0.0137001073
C             -7.8065703095        -0.2484203862         0.0120339029
C             -6.4483484277         0.4560050510        -0.0011926664
H             -5.8968873984         0.1003526125        -0.8603529129
H             -5.9196367715         0.1767413141         0.8996425750
H             -6.5448948708         1.5280200540        -0.0489764689
H             -9.9194181475         0.7570674776        -0.0357237084
H             -7.8107219662        -1.3341347532         0.0482793860
    8

C             -8.9529674763         0.3038812203        -0.0153626345
C             -7.8063616782        -0.2458228424         0.0136144352
C             -6.4478823585         0.4558849952        -0.0011622057
H             -5.8994481630         0.1028696951        -0.8634740719
H             -5.9161523669         0.1721992947         0.8965053743
H             -6.5423793245         1.5282660660        -0.0442789784
H             -9.9219524406         0.7533034862        -0.0401323716
H             -7.8117761919        -1.3316219151         0.0543004526
    8

C             -8.9528241542         0.3040632859        -0.0159755195
C             -7.8060033221        -0.2450856308         0.0144191687
C             -6.4479638234         0.4557916141        -0.0011184596
H             -5.9004452419         0.1040331211        -0.8645206528
H             -5.9147319500         0.1708032582         0.8952059947
H             -6.5419784229         1.5281778296        -0.0425554296
H             -9.9223943923         0.7522258893        -0.0418462273
H             -7.8125786932        -1.3310493675         0.0564011253
    8

C             -8.9526361597         0.3040193584        -0.0160207341
C             -7.8057872224        -0.2451583614         0.0145803868
C             -6.4480635736         0.4557687021        -0.0010918015
H             -5.9004735488         0.1042124609        -0.8645060938
H             -5.9145477608         0.1709305869         0.8950894449
H             -6.5422558661         1.5280896125        -0.0425006946
H             -9.9221508030         0.7523096722        -0.0419422598
H             -7.8130050657        -1.3312120315         0.0564017521
    8

C             -8.9526101518         0.3039613329        -0.0160257521
C             -7.8057294970        -0.2452106917         0.0145704179
C             -6.4480490315         0.4557728311        -0.0010933174
H             -5.9003722289         0.1042006150        -0.8644416134
H             -5.9145699155         0.1710598465         0.8951485716
H             -6.5423488706         1.5280808515        -0.0425960553
H             -9.9220689904         0.7523737422        -0.0418310760
H             -7.8131713143        -1.3312785274         0.0562788247
[GEOCONV]
energy
     -116.0963543751
     -116.0963543751
     -116.0984171179
     -116.0986563768
     -116.0988822105
     -116.0989088986
     -116.0989165670
     -116.0989201580
     -116.0989225509
     -116.0989232103
     -116.0989233403
     -116.0989233583
[TITLE]
*** Dalton interface to Molden, wave function type : HF            26Mar24   11:
[Atoms] AU
C          1     6       -16.9179812908         0.5744036718        -0.030284282
C          2     6       -14.7506909550        -0.4633810503         0.027534099
C          3     6       -12.1850467101         0.8612858259        -0.002066070
H          4     1       -11.1500875481         0.1969106244        -1.633557900
H          5     1       -11.1769172874         0.3232562609         1.691585641
H          6     1       -12.3632475797         2.8876543061        -0.080494878
H          7     1       -18.7499929852         1.4217803164        -0.079049277
H          8     1       -14.7647539516        -2.5157518129         0.106351565
[5D7F]
[9G]
[MO]
Sym= A
Ene=  -11.6121
Spin= Alpha
Occup=  2.0000
    1       -0.996089
    2       -0.023237
    3        0.015351
    4       -0.000618
    5        0.000320
    6       -0.000017
    7        0.004919
    8       -0.002369
    9        0.000132
   10       -0.017366
   11        0.000531
   12       -0.008605
   13       -0.000191
   14        0.000121
   15       -0.000006
   16        0.004678
   17       -0.002157
   18        0.000121
   19        0.000043
   20        0.000292
   21       -0.000642
   22       -0.000157
   23       -0.000042
   25        0.000424
   26        0.000850
   27       -0.000029
   28        0.000044
   29        0.000004
   30        0.000044
   31        0.000003
   32        0.000126
   33       -0.000713
   34        0.000532
   35       -0.000395
   36        0.000167
   37       -0.000674
Sym= A
Ene=  -11.5445
Spin= Alpha
Occup=  2.0000
    1        0.018239
    2        0.001476
    3       -0.009777
    4        0.000414
    5       -0.000257
    6        0.000013
    7       -0.005349
    8        0.002238
    9       -0.000131
   10       -0.996018
   11       -0.025361
   12        0.021053
   13        0.001146
   14       -0.000419
   15        0.000025
   16       -0.003425
   17        0.002971
   18       -0.000142
   19       -0.003185
   20        0.000286
   21       -0.003040
   22       -0.000094
   23        0.000059
   24       -0.000003
   25        0.002358
   26       -0.000410
   27        0.000034
   28        0.000108
   29       -0.000639
   30        0.000107
   31       -0.000638
   32        0.000212
   33        0.000631
   34       -0.000002
   35       -0.001291
   36        0.000144
   37       -0.002023
Sym= A
Ene=  -11.4598
Spin= Alpha
Occup=  2.0000
    1        0.000044
    2       -0.000436
    3        0.002092
    4       -0.000170
    5        0.000048
    6       -0.000003
    7        0.001730
    8       -0.001034
    9        0.000054
   10       -0.003298
   11       -0.000395
   12        0.002165
   13       -0.000203
   14       -0.000149
   15        0.000004
   16        0.003601
   17        0.000961
   18       -0.000007
   19        0.996216
   20        0.025993
   21       -0.018974
   22       -0.000739
   23       -0.000373
   24        0.000008
   25        0.001293
   26        0.001045
   27       -0.000029
   28        0.000123
   29        0.003208
   30        0.000123
   31        0.003208
   32        0.000081
   33        0.002968
   34        0.000124
   35        0.000740
   36       -0.000082
   37        0.000322
Sym= A
Ene=   -1.3720
Spin= Alpha
Occup=  2.0000
    1        0.141270
    2       -0.303055
    3       -0.147083
    4       -0.150018
    5        0.069053
    6       -0.003879
    7        0.021938
    8       -0.011388
    9        0.000633
   10        0.168906
   11       -0.342323
   12       -0.243996
   13        0.105395
   14       -0.061060
   15        0.003224
   16        0.021742
   17       -0.001177
   18        0.000222
   19        0.068384
   20       -0.126857
   21       -0.119848
   22        0.053067
   23        0.020288
   24       -0.000338
   25        0.008163
   26        0.003313
   27       -0.000053
   28       -0.030385
   29        0.005848
   30       -0.030383
   31        0.005841
   32       -0.032359
   33        0.001413
   34       -0.055523
   35        0.018058
   36       -0.083913
   37       -0.002809
Sym= A
Ene=   -1.1882
Spin= Alpha
Occup=  2.0000
    1       -0.101844
    2        0.223015
    3        0.134890
    4        0.020920
    5       -0.032463
    6        0.001390
    7       -0.043135
    8        0.014769
    9       -0.000946
   10        0.004179
   11       -0.010972
   12        0.050702
   13       -0.226906
   14       -0.008546
   15       -0.001561
   16       -0.049462
   17        0.002888
   18       -0.000516
   19        0.174277
   20       -0.333146
   21       -0.358183
   22       -0.003154
   23        0.013954
   24       -0.000559
   25        0.011614
   26        0.008861
   27       -0.000240
   28       -0.117531
   29       -0.016220
   30       -0.117534
   31       -0.016225
   32       -0.111252
   33       -0.015628
   34        0.078410
   35       -0.005329
   36       -0.004038
   37       -0.003468
Sym= A
Ene=   -1.0428
Spin= Alpha
Occup=  2.0000
    1       -0.103297
    2        0.236173
    3        0.171535
    4       -0.302307
    5        0.167444
    6       -0.009064
    7       -0.174050
    8        0.084830
    9       -0.004772
   10        0.088476
   11       -0.181016
   12       -0.073147
   13        0.034808
   14        0.099782
   15       -0.003573
   16       -0.036094
   17        0.078474
   18       -0.003300
   19       -0.053257
   20        0.105329
   21        0.115510
   22        0.055458
   23        0.049890
   24       -0.001462
   25        0.017047
   26       -0.000420
   27        0.000147
   28        0.047270
   29        0.013592
   30        0.047261
   31        0.013587
   32        0.065093
   33        0.029363
   34        0.261380
   35        0.048734
   36       -0.122610
   37       -0.027392
Sym= A
Ene=   -0.9314
Spin= Alpha
Occup=  2.0000
    1       -0.020480
    2        0.047719
    3        0.041080
    4        0.303838
    5       -0.067640
    6        0.005191
    7        0.119264
    8       -0.043124
    9        0.002687
   10        0.037310
   11       -0.079828
   12       -0.201316
   13       -0.195963
   14        0.353233
   15       -0.015191
   16       -0.002972
   17        0.159251
   18       -0.006155
   19       -0.018136
   20        0.037442
   21        0.021841
   22       -0.004990
   23        0.158546
   24       -0.006128
   25        0.002019
   26        0.065267
   27       -0.002484
   28       -0.009280
   29       -0.004926
   30       -0.009334
   31       -0.004953
   32        0.100387
   33        0.045500
   34       -0.129652
   35       -0.046506
   36       -0.233819
   37       -0.087877
Sym= A
Ene=   -0.8138
Spin= Alpha
Occup=  2.0000
    1        0.020904
    2       -0.047732
    3       -0.029284
    4       -0.048938
    5        0.156287
    6       -0.006529
    7       -0.025652
    8        0.040122
    9       -0.001815
   10       -0.050253
   11        0.102638
   12        0.217028
   13        0.338590
   14        0.233100
   15       -0.006262
   16        0.206034
   17        0.192542
   18       -0.005748
   19        0.027544
   20       -0.041528
   21       -0.208750
   22       -0.352045
   23       -0.104881
   24        0.000874
   25       -0.090367
   26       -0.014220
   27       -0.000326
   28       -0.115496
   29       -0.067564
   30       -0.115764
   31       -0.067707
   32       -0.070991
   33       -0.037670
   34        0.037393
   35        0.020041
   36       -0.077130
   37       -0.012794
Sym= A
Ene=   -0.8044
Spin= Alpha
Occup=  2.0000
    1       -0.000002
    2       -0.000001
    3        0.000071
    4       -0.001456
    5        0.006516
    6        0.166535
    7       -0.000680
    8        0.003254
    9        0.084299
   10       -0.000024
   11        0.000054
   12        0.000054
   13       -0.001372
   14        0.007490
   15        0.191839
   16       -0.000707
   17        0.004100
   18        0.104308
   19        0.000014
   20       -0.000017
   21       -0.000122
   22       -0.003646
   23        0.015895
   24        0.415040
   25       -0.001841
   26        0.008281
   27        0.215555
   28       -0.208130
   29       -0.117469
   30        0.207873
   31        0.117315
   32        0.000081
   33        0.000050
   34        0.000034
   35        0.000048
   36       -0.000035
   37        0.000003
Sym= A
Ene=   -0.7633
Spin= Alpha
Occup=  2.0000
    1       -0.022922
    2        0.065542
    3        0.055407
    4        0.107010
    5       -0.010031
    6        0.001306
    7        0.026501
    8       -0.012971
    9        0.000731
   10        0.007597
   11       -0.017929
   12       -0.034140
   13       -0.025082
   14        0.159622
   15       -0.006329
   16        0.031824
   17        0.094788
   18       -0.003370
   19       -0.001079
   20        0.006052
   21       -0.025897
   22        0.163198
   23       -0.405609
   24        0.016945
   25        0.114923
   26       -0.220064
   27        0.009418
   28        0.131592
   29        0.077912
   30        0.131819
   31        0.078043
   32       -0.274134
   33       -0.175721
   34       -0.025252
   35       -0.022102
   36       -0.127293
   37       -0.082185
Sym= A
Ene=   -0.6786
Spin= Alpha
Occup=  2.0000
    1        0.000035
    2       -0.000080
    3       -0.000083
    4        0.003945
    5       -0.017850
    6       -0.463117
    7        0.002518
    8       -0.011539
    9       -0.299848
   10       -0.000012
   11        0.000036
   12        0.000014
   13        0.002436
   14       -0.011473
   15       -0.299293
   16        0.001631
   17       -0.007549
   18       -0.196504
   21        0.000001
   22       -0.001681
   23        0.007842
   24        0.204282
   25       -0.001140
   26        0.005318
   27        0.138097
   28       -0.121497
   29       -0.088434
   30        0.121440
   31        0.088400
   32        0.000060
   33        0.000024
   34        0.000005
   35       -0.000045
   36       -0.000010
   37       -0.000012
Sym= A
Ene=   -0.2061
Spin= Alpha
Occup=  0.0000
    1       -0.000664
    2        0.007020
    3       -0.055444
    4       -0.206238
    5       -0.450080
    6        0.015583
    7       -0.297449
    8       -0.545525
    9        0.018493
   10       -0.002081
   11        0.007586
   12        0.037982
   13        0.026204
   14        0.047608
   15       -0.001603
   16       -0.053167
   17        0.048705
   18       -0.002309
   19       -0.039163
   20        0.066417
   21        0.309159
   22       -0.165197
   23       -0.046977
   24        0.000447
   25       -0.140065
   26       -0.046769
   27        0.000693
   28       -0.022668
   29       -0.084389
   30       -0.022691
   31       -0.084476
   32        0.003789
   33       -0.088956
   34        0.000765
   35       -0.014431
   36       -0.143174
   37       -0.268498
Sym= A
Ene=   -0.0842
Spin= Alpha
Occup=  0.0000
    1        0.000065
    2       -0.000096
    3       -0.000339
    4        0.003186
    5       -0.014126
    6       -0.366257
    7        0.006196
    8       -0.025554
    9       -0.656370
   10       -0.000025
   11        0.000114
   12       -0.000422
   13       -0.003694
   14        0.016723
   15        0.434013
   16       -0.006209
   17        0.029959
   18        0.784444
   19        0.000001
   20        0.000003
   21       -0.000008
   22        0.000300
   23       -0.001303
   24       -0.034670
   25        0.000503
   26       -0.002056
   27       -0.059584
   28        0.081607
   29        0.158029
   30       -0.081544
   31       -0.157815
   32       -0.000058
   33       -0.000321
   34        0.000195
   35        0.000902
   36        0.000012
   37       -0.000148
Sym= A
Ene=    0.0252
Spin= Alpha
Occup=  0.0000
    1        0.101641
    2       -0.122008
    3       -1.277944
    4        0.176874
    5       -0.068145
    6        0.004389
    7        0.912085
    8       -0.336743
    9        0.021417
   10       -0.073724
   11        0.203414
   12        0.309827
   13       -0.125749
   14        0.007710
   15       -0.001527
   16        0.201644
   17       -0.339571
   18        0.014081
   19        0.000442
   20        0.003627
   21        0.093265
   22        0.057592
   23        0.043769
   24       -0.001184
   25        0.189699
   26        0.264118
   27       -0.008388
   28        0.004474
   29       -0.067560
   30        0.004550
   31       -0.067507
   32       -0.008172
   33       -0.272535
   34        0.164400
   35        1.972965
   36       -0.006022
   37       -0.675672
Sym= A
Ene=    0.0648
Spin= Alpha
Occup=  0.0000
    1       -0.034690
    2        0.121632
    3        0.430144
    4       -0.072676
    5        0.044655
    6       -0.002421
    7       -0.288331
    8        0.518865
    9       -0.022604
   10       -0.070441
   11        0.100921
   12        1.528470
   13        0.070099
   14       -0.265210
   15        0.010820
   16       -0.013859
   17       -0.998746
   18        0.038419
   19       -0.024438
   20        0.009906
   21        0.644285
   22        0.126935
   23       -0.046653
   24        0.002885
   25        0.374189
   26       -0.049474
   27        0.005211
   28       -0.025826
   29       -0.577378
   30       -0.025915
   31       -0.578282
   32        0.039843
   33        0.130111
   34       -0.010803
   35       -0.820719
   36       -0.039126
   37       -1.851328
Sym= A
Ene=    0.0870
Spin= Alpha
Occup=  0.0000
    1       -0.001528
    2        0.054374
    3       -0.388310
    4        0.034398
    5        0.099072
    6       -0.003513
    7       -0.297450
    8        0.156339
    9       -0.008527
   10        0.025715
   11        0.014260
   12       -0.244591
   13       -0.023372
   14        0.075896
   15       -0.003123
   16       -0.480373
   17        0.335823
   18       -0.016810
   19       -0.134955
   20        0.114769
   21        2.518803
   22        0.076428
   23        0.087215
   24       -0.002783
   25        0.334848
   26        0.237987
   27       -0.006724
   28       -0.002487
   29       -1.018781
   30       -0.002433
   31       -1.017900
   32       -0.033330
   33       -1.367819
   34        0.011522
   35       -0.189823
   36        0.078877
   37        0.668237
Sym= A
Ene=    0.1291
Spin= Alpha
Occup=  0.0000
    1        0.007753
    2        0.012828
    3       -0.296508
    4       -0.134691
    5        0.095349
    6       -0.004833
    7       -0.702328
    8        0.365278
    9       -0.019034
   10       -0.050565
   11       -0.017412
   12        1.658373
   13        0.026352
   14       -0.052103
   15        0.002095
   16       -0.163362
   17       -0.182293
   18        0.003290
   19        0.027724
   20       -0.020838
   21       -0.447422
   22       -0.082122
   23        0.279208
   24       -0.009514
   25       -0.380947
   26        1.388571
   27       -0.047268
   28        0.041218
   29        0.990055
   30        0.040433
   31        0.972174
   32       -0.091187
   33       -1.655924
   34        0.041217
   35       -0.733686
   36        0.022052
   37       -0.657890
Sym= A
Ene=    0.1300
Spin= Alpha
Occup=  0.0000
    1        0.000039
    2        0.000075
    3       -0.001143
    4       -0.000906
    5        0.001035
    6        0.015349
    7       -0.002303
    8       -0.004485
    9       -0.169345
   10       -0.000306
   11       -0.000007
   12        0.009396
   13        0.000040
   14        0.000175
   15        0.014653
   16       -0.003995
   17        0.014479
   18        0.418442
   19        0.000180
   20       -0.000144
   21       -0.002973
   22        0.002182
   23       -0.010832
   24       -0.323477
   25        0.010802
   26       -0.052891
   27       -1.589214
   28       -0.074756
   29       -1.658023
   30        0.075185
   31        1.668878
   32       -0.000483
   33       -0.008557
   34        0.000240
   35       -0.004153
   36        0.000108
   37       -0.004500
Sym= A
Ene=    0.1855
Spin= Alpha
Occup=  0.0000
    1        0.000425
    2        0.089825
    3        0.121022
    4       -0.017168
    5        0.061110
    6       -0.002527
    7       -0.551694
    8       -0.577683
    9        0.017557
   10       -0.080497
   11        0.111654
   12        1.730349
   13        0.248633
   14        0.256235
   15       -0.007782
   16        1.592891
   17        1.504127
   18       -0.044527
   19        0.082881
   20        0.013333
   21       -2.023737
   22        0.184037
   23        0.087315
   24       -0.001855
   25        1.903605
   26        0.569708
   27       -0.006161
   28       -0.070286
   29       -0.225687
   30       -0.070326
   31       -0.225792
   32        0.007257
   33        0.208558
   34        0.046376
   35       -0.323686
   36       -0.014103
   37        0.844088
Sym= A
Ene=    0.3361