[Molden Format]
[GTO]
    1 0
 s  10 1.00
    3047.5249000    0.0018347000
     457.3695100    0.0140373000
     103.9486900    0.0688426000
      29.2101550    0.2321844000
       9.2866630    0.4679413000
       3.1639270    0.3623120000
       7.8682724    0.0000000000
       1.8812885    0.0000000000
       0.5442493    0.0000000000
       0.1687144    0.0000000000
 s  10 1.00
    3047.5249000    0.0000000000
     457.3695100    0.0000000000
     103.9486900    0.0000000000
      29.2101550    0.0000000000
       9.2866630    0.0000000000
       3.1639270    0.0000000000
       7.8682724   -0.1193324000
       1.8812885   -0.1608542000
       0.5442493    1.1434564000
       0.1687144    0.0000000000
 s  10 1.00
    3047.5249000    0.0000000000
     457.3695100    0.0000000000
     103.9486900    0.0000000000
      29.2101550    0.0000000000
       9.2866630    0.0000000000
       3.1639270    0.0000000000
       7.8682724    0.0000000000
       1.8812885    0.0000000000
       0.5442493    0.0000000000
       0.1687144    1.0000000000
 p   4 1.00
       7.8682724    0.0689991000
       1.8812885    0.3164240000
       0.5442493    0.7443083000
       0.1687144    0.0000000000
 p   4 1.00
       7.8682724    0.0000000000
       1.8812885    0.0000000000
       0.5442493    0.0000000000
       0.1687144    1.0000000000
 d   1 1.00
       0.8000000    1.0000000000

    2 0
 s  10 1.00
    3047.5249000    0.0018347000
     457.3695100    0.0140373000
     103.9486900    0.0688426000
      29.2101550    0.2321844000
       9.2866630    0.4679413000
       3.1639270    0.3623120000
       7.8682724    0.0000000000
       1.8812885    0.0000000000
       0.5442493    0.0000000000
       0.1687144    0.0000000000
 s  10 1.00
    3047.5249000    0.0000000000
     457.3695100    0.0000000000
     103.9486900    0.0000000000
      29.2101550    0.0000000000
       9.2866630    0.0000000000
       3.1639270    0.0000000000
       7.8682724   -0.1193324000
       1.8812885   -0.1608542000
       0.5442493    1.1434564000
       0.1687144    0.0000000000
 s  10 1.00
    3047.5249000    0.0000000000
     457.3695100    0.0000000000
     103.9486900    0.0000000000
      29.2101550    0.0000000000
       9.2866630    0.0000000000
       3.1639270    0.0000000000
       7.8682724    0.0000000000
       1.8812885    0.0000000000
       0.5442493    0.0000000000
       0.1687144    1.0000000000
 p   4 1.00
       7.8682724    0.0689991000
       1.8812885    0.3164240000
       0.5442493    0.7443083000
       0.1687144    0.0000000000
 p   4 1.00
       7.8682724    0.0000000000
       1.8812885    0.0000000000
       0.5442493    0.0000000000
       0.1687144    1.0000000000
 d   1 1.00
       0.8000000    1.0000000000

    3 0
 s  10 1.00
    3047.5249000    0.0018347000
     457.3695100    0.0140373000
     103.9486900    0.0688426000
      29.2101550    0.2321844000
       9.2866630    0.4679413000
       3.1639270    0.3623120000
       7.8682724    0.0000000000
       1.8812885    0.0000000000
       0.5442493    0.0000000000
       0.1687144    0.0000000000
 s  10 1.00
    3047.5249000    0.0000000000
     457.3695100    0.0000000000
     103.9486900    0.0000000000
      29.2101550    0.0000000000
       9.2866630    0.0000000000
       3.1639270    0.0000000000
       7.8682724   -0.1193324000
       1.8812885   -0.1608542000
       0.5442493    1.1434564000
       0.1687144    0.0000000000
 s  10 1.00
    3047.5249000    0.0000000000
     457.3695100    0.0000000000
     103.9486900    0.0000000000
      29.2101550    0.0000000000
       9.2866630    0.0000000000
       3.1639270    0.0000000000
       7.8682724    0.0000000000
       1.8812885    0.0000000000
       0.5442493    0.0000000000
       0.1687144    1.0000000000
 p   4 1.00
       7.8682724    0.0689991000
       1.8812885    0.3164240000
       0.5442493    0.7443083000
       0.1687144    0.0000000000
 p   4 1.00
       7.8682724    0.0000000000
       1.8812885    0.0000000000
       0.5442493    0.0000000000
       0.1687144    1.0000000000
 d   1 1.00
       0.8000000    1.0000000000

    4 0
 s   4 1.00
      18.7311370    0.0334946000
       2.8253937    0.2347269500
       0.6401217    0.8137573300
       0.1612778    0.0000000000
 s   4 1.00
      18.7311370    0.0000000000
       2.8253937    0.0000000000
       0.6401217    0.0000000000
       0.1612778    1.0000000000
 p   1 1.00
       1.1000000    1.0000000000

    5 0
 s   4 1.00
      18.7311370    0.0334946000
       2.8253937    0.2347269500
       0.6401217    0.8137573300
       0.1612778    0.0000000000
 s   4 1.00
      18.7311370    0.0000000000
       2.8253937    0.0000000000
       0.6401217    0.0000000000
       0.1612778    1.0000000000
 p   1 1.00
       1.1000000    1.0000000000

    6 0
 s   4 1.00
      18.7311370    0.0334946000
       2.8253937    0.2347269500
       0.6401217    0.8137573300
       0.1612778    0.0000000000
 s   4 1.00
      18.7311370    0.0000000000
       2.8253937    0.0000000000
       0.6401217    0.0000000000
       0.1612778    1.0000000000
 p   1 1.00
       1.1000000    1.0000000000

    7 0
 s   4 1.00
      18.7311370    0.0334946000
       2.8253937    0.2347269500
       0.6401217    0.8137573300
       0.1612778    0.0000000000
 s   4 1.00
      18.7311370    0.0000000000
       2.8253937    0.0000000000
       0.6401217    0.0000000000
       0.1612778    1.0000000000
 p   1 1.00
       1.1000000    1.0000000000

    8 0
 s   4 1.00
      18.7311370    0.0334946000
       2.8253937    0.2347269500
       0.6401217    0.8137573300
       0.1612778    0.0000000000
 s   4 1.00
      18.7311370    0.0000000000
       2.8253937    0.0000000000
       0.6401217    0.0000000000
       0.1612778    1.0000000000
 p   1 1.00
       1.1000000    1.0000000000

[SCFCONV]
scf-first  1  THROUGH  14
     -115.4302922752
     -116.0806473765
     -116.1358263263
     -116.1441071475
     -116.1461861943
     -116.1468108889
     -116.1468744586
     -116.1468791861
     -116.1468793850
     -116.1468793958
     -116.1468793976
     -116.1468793984
     -116.1468793990
     -116.1468793991
[GEOMETRIES] XYZ
    8

C             -8.9537900000         0.3200300000        -0.0044400000
C             -7.7946600000        -0.2715300000        -0.0036800000
C             -6.4776300000         0.4302300000        -0.0005200000
H             -5.8696100000         0.0875300000        -0.8432900000
H             -5.9377100000         0.2086500000         0.9250700000
H             -6.5935500000         1.5158300000        -0.0808100000
H             -9.9030600000         0.8059000000        -0.0041500000
H             -7.7689100000        -1.3576800000         0.0118300000
    8

C             -8.9537900000         0.3200300000        -0.0044400000
C             -7.7946600000        -0.2715300000        -0.0036800000
C             -6.4776300000         0.4302300000        -0.0005200000
H             -5.8696100000         0.0875300000        -0.8432900000
H             -5.9377100000         0.2086500000         0.9250700000
H             -6.5935500000         1.5158300000        -0.0808100000
H             -9.9030600000         0.8059000000        -0.0041500000
H             -7.7689100000        -1.3576800000         0.0118300000
    8

C             -8.9324822066         0.3031291263        -0.0026739389
C             -7.7960668156        -0.2681814866         0.0210159775
C             -6.4716068917         0.4546232907         0.0006542056
H             -5.9008790183         0.0854369961        -0.8470782404
H             -5.9408608424         0.2016023968         0.9144288530
H             -6.5695304414         1.5316239726        -0.0724609127
H             -9.8881793071         0.7857707346        -0.0224586410
H             -7.7993144770        -1.3550450304         0.0085826970
    8

C             -8.9287227724         0.2996854406        -0.0117826136
C             -7.7965751274        -0.2668456259        -0.0127043315
C             -6.4662789068         0.4592383384        -0.0047798760
H             -5.8903859891         0.0961445878        -0.8486601068
H             -5.9536011223         0.1905783591         0.9125756495
H             -6.5666290027         1.5337508857        -0.0652868748
H             -9.8864167681         0.7808562754        -0.0098865748
H             -7.8103103111        -1.3544482610         0.0405347281
    8

C             -8.9290131090         0.2983469739        -0.0102141250
C             -7.7977090621        -0.2627238297         0.0099329749
C             -6.4543249800         0.4607181057        -0.0017040046
H             -5.8970787102         0.1002477823        -0.8560167254
H             -5.9331475520         0.1897875874         0.9074793311
H             -6.5722613195         1.5305517400        -0.0585505416
H             -9.8892780882         0.7743490287        -0.0275010009
H             -7.8261071790        -1.3523173882         0.0365840916
    8

C             -8.9335532318         0.2983903080        -0.0118450600
C             -7.7980540175        -0.2587434021         0.0120949556
C             -6.4497037403         0.4605309670        -0.0012154349
H             -5.8978965713         0.1016370353        -0.8597564305
H             -5.9267944887         0.1855592556         0.9054733105
H             -6.5663860096         1.5312303557        -0.0541176094
H             -9.8965717256         0.7669774482        -0.0319302969
H             -7.8299602152        -1.3466219677         0.0413065657
    8

C             -8.9393209770         0.2988475275        -0.0143368416
C             -7.7983555453        -0.2495426472         0.0139630241
C             -6.4430073529         0.4607830257        -0.0009404110
H             -5.8995890159         0.1037579401        -0.8658726046
H             -5.9179446882         0.1764077411         0.9014917831
H             -6.5549619316         1.5329655443        -0.0461613521
H             -9.9090689361         0.7520512162        -0.0392819997
H             -7.8366715531        -1.3363103477         0.0511484017
    8

C             -8.9435173930         0.2996261090        -0.0172560905
C             -7.7981925143        -0.2392790344         0.0149467453
C             -6.4382813117         0.4609002449        -0.0008789543
H             -5.9007306059         0.1047764040        -0.8701325266
H             -5.9113909353         0.1678017042         0.8977443211
H             -6.5437929907         1.5342422300        -0.0397108249
H             -9.9205003451         0.7368714124        -0.0443186892
H             -7.8425139039        -1.3259790700         0.0596160192
    8

C             -8.9478969030         0.3010913468        -0.0196047602
C             -7.7972759464        -0.2242874165         0.0169098198
C             -6.4335224203         0.4608994008        -0.0007931325
H             -5.9021921993         0.1048866175        -0.8741962748
H             -5.9038615109         0.1572270932         0.8928188195
H             -6.5288045847         1.5353853071        -0.0326336114
H             -9.9350203894         0.7156347685        -0.0506566567
H             -7.8503460460        -1.3118771174         0.0681657963
    8

C             -8.9481731063         0.3017051139        -0.0196375337
C             -7.7964191526        -0.2193644276         0.0169191660
C             -6.4330327351         0.4608691849        -0.0007610688
H             -5.9015236979         0.1034359320        -0.8733972242
H             -5.9033765150         0.1559675236         0.8923994413
H             -6.5247283045         1.5352966571        -0.0328332237
H             -9.9383068082         0.7090117503        -0.0502401089
H             -7.8533596804        -1.3079617342         0.0675605519
    8

C             -8.9476622668         0.3018449416        -0.0186900376
C             -7.7959134060        -0.2187965138         0.0162946127
C             -6.4333908431         0.4608269769        -0.0007674470
H             -5.8998895533         0.1016420089        -0.8713679851
H             -5.9048961643         0.1579965362         0.8937647285
H             -6.5247024016         1.5350139088        -0.0353793537
H             -9.9380879572         0.7083235103        -0.0478138043
H             -7.8543774077        -1.3078913689         0.0639692866
    8

C             -8.9474160255         0.3018510253        -0.0177508682
C             -7.7956622641        -0.2189617888         0.0153924206
C             -6.4335096879         0.4608034890        -0.0007984389
H             -5.8980440601         0.0998749670        -0.8694141546
H             -5.9065465080         0.1602739775         0.8954360033
H             -6.5250378546         1.5348404562        -0.0380532821
H             -9.9377784859         0.7085138087        -0.0451459780
H             -7.8549251138        -1.3082359350         0.0603442979
    8

C             -8.9474199517         0.3018302675        -0.0167784024
C             -7.7955504329        -0.2190613354         0.0142625071
C             -6.4333866867         0.4608000963        -0.0008695549
H             -5.8959671636         0.0979449721        -0.8674391634
H             -5.9083311889         0.1625268969         0.8972858327
H             -6.5250937578         1.5347502616        -0.0408415513
H             -9.9378064707         0.7085551869        -0.0422660805
H             -7.8553643477        -1.3083863459         0.0566564126
    8

C             -8.9476032965         0.3018370083        -0.0163607136
C             -7.7955903856        -0.2188664975         0.0136355463
C             -6.4331691627         0.4608125434        -0.0009160534
H             -5.8949481666         0.0969319307        -0.8665436008
H             -5.9091837707         0.1634177638         0.8981795441
H             -6.5247685633         1.5347582759        -0.0421211299
H             -9.9381602286         0.7082417952        -0.0408706183
H             -7.8554964260        -1.3081728199         0.0550070256
    8

C             -8.9477480853         0.3018627868        -0.0162417865
C             -7.7956552260        -0.2186495454         0.0133968457
C             -6.4330428429         0.4608231544        -0.0009362954
H             -5.8946154247         0.0965274992        -0.8662541305
H             -5.9094895503         0.1636138168         0.8984769215
H             -6.5244662278         1.5347797421        -0.0425316214
H             -9.9384490328         0.7079552144        -0.0403931987
H             -7.8554536102        -1.3079526684         0.0544932652
[GEOCONV]
energy
     -116.1468793991
     -116.1468793991
     -116.1497879311
     -116.1500290922
     -116.1502983063
     -116.1503450117
     -116.1503821431
     -116.1504095380
     -116.1504376384
     -116.1504455404
     -116.1504473079
     -116.1504479520
     -116.1504483370
     -116.1504484530
     -116.1504484799
[TITLE]
*** Dalton interface to Molden, wave function type : HF            26Mar24   11:
[Atoms] AU
C          1     6       -16.9087933167         0.5704379944        -0.030692528
C          2     6       -14.7316533420        -0.4131877581         0.025316369
C          3     6       -12.1566891235         0.8708295538        -0.001769341
H          4     1       -11.1392087649         0.1824105371        -1.636983061
H          5     1       -11.1673167885         0.3091853040         1.697875311
H          6     1       -12.3294542823         2.9003133747        -0.080373116
H          7     1       -18.7809467791         1.3378414641        -0.076332082
H          8     1       -14.8446559108        -2.4716723277         0.102977346
[5D7F]
[9G]
[MO]
Sym= A
Ene=  -11.6063
Spin= Alpha
Occup=  2.0000
    1       -0.995977
    2       -0.023580
    3        0.011364
    4       -0.000110
    5        0.000149
    6       -0.000006
    7        0.002486
    8       -0.001163
    9        0.000065
   10        0.000872
   11       -0.000092
   12        0.000010
   13       -0.001622
   14        0.001689
   15       -0.017053
   16        0.001303
   17       -0.004892
   18       -0.001131
   19        0.000479
   20       -0.000028
   21        0.002998
   22       -0.001309
   23        0.000075
   24       -0.000366
   25        0.000018
   26       -0.000018
   27        0.000231
   28       -0.000282
   29        0.000037
   30        0.000279
   31       -0.000640
   32       -0.000093
   33       -0.000007
   34       -0.000001
   35        0.000490
   36        0.000536
   37       -0.000016
   38        0.000082
   40        0.000004
   41       -0.000017
   42       -0.000033
   43        0.000004
   44       -0.000023
   45       -0.000007
   46       -0.000017
   47       -0.000026
   48        0.000004
   49       -0.000023
   50       -0.000007
   51       -0.000015
   52        0.000027
   53        0.000125
   54       -0.000450
   55       -0.000032
   56        0.000026
   57       -0.000001
   58        0.001706
   59       -0.000935
   60        0.001169
   61       -0.000457
   62        0.000028
   63        0.000037
   64       -0.000659
   65        0.000045
   66       -0.000178
   67        0.000007
Sym= A
Ene=  -11.5352
Spin= Alpha
Occup=  2.0000
    1        0.017923
    2        0.001667
    3       -0.007738
    4        0.000727
    5       -0.000390
    6        0.000021
    7       -0.004048
    8        0.001471
    9       -0.000091
   10       -0.000284
   11        0.000014
   12       -0.000019
   13        0.000052
   14       -0.000236
   15       -0.995951
   16       -0.025234
   17        0.017483
   18        0.001011
   19       -0.000137
   20        0.000014
   21       -0.002438
   22        0.002110
   23       -0.000101
   24        0.000874
   25       -0.000026
   26        0.000050
   27       -0.000264
   28        0.000291
   29       -0.003592
   30        0.000147
   31       -0.002091
   32       -0.000200
   33       -0.000036
   35        0.001830
   36       -0.000520
   37        0.000035
   38       -0.000246
   39       -0.000009
   40       -0.000008
   41        0.000144
   42        0.000370
   43        0.000147
   44       -0.000724
   45        0.000047
   46        0.000078
   47       -0.000038
   48        0.000147
   49       -0.000724
   50        0.000046
   51        0.000080
   52        0.000032
   53        0.000199
   54        0.000511
   55        0.000010
   56       -0.000011
   57        0.000001
   58       -0.000044
   59       -0.000813
   60        0.000028
   61       -0.000009
   62        0.000001
   63        0.000432
   64       -0.001798
   65        0.000032
   66        0.000530
   67       -0.000020
Sym= A
Ene=  -11.4574
Spin= Alpha
Occup=  2.0000
    1        0.000041
    2       -0.000388
    3        0.002557
    4       -0.000162
    5       -0.000072
    6        0.000001
    7        0.002006
    8       -0.001112
    9        0.000060
   10       -0.000134
   11        0.000006
   12       -0.000012
   13       -0.000053
   14       -0.000124
   15       -0.003670
   16       -0.000290
   17        0.001542
   18       -0.000073
   19       -0.000138
   20        0.000005
   21        0.003813
   22        0.000769
   23        0.000003
   24        0.000264
   25        0.000007
   27       -0.000368
   28       -0.000377
   29        0.996184
   30        0.026156
   31       -0.018074
   32       -0.000676
   33       -0.000347
   34        0.000007
   35        0.001465
   36        0.001191
   37       -0.000033
   38        0.000136
   39        0.000004
   41       -0.000182
   42       -0.000186
   43       -0.000019
   44        0.002926
   45        0.000160
   46       -0.000148
   47       -0.000276
   48       -0.000019
   49        0.002926
   50        0.000155
   51       -0.000126
   52        0.000289
   53       -0.000082
   54        0.002625
   55       -0.000079
   56        0.000350
   57       -0.000014
   58        0.000086
   59        0.000814
   60       -0.000013
   61        0.000002
   63       -0.000121
   64        0.000316
   65       -0.000134
   66       -0.000019
Sym= A
Ene=   -1.3653
Spin= Alpha
Occup=  2.0000
    1        0.142995
    2       -0.293988
    3       -0.158386
    4       -0.143323
    5        0.062036
    6       -0.003578
    7        0.011783
    8       -0.004168
    9        0.000264
   10        0.009059
   11       -0.000791
   12        0.000206
   13       -0.013473
   14        0.014210
   15        0.169279
   16       -0.325000
   17       -0.241101
   18        0.098003
   19       -0.054435
   20        0.002910
   21        0.018915
   22       -0.005944
   23        0.000385
   24        0.016388
   25       -0.000469
   26        0.000768
   27       -0.009171
   28        0.003911
   29        0.067409
   30       -0.125438
   31       -0.100931
   32        0.054034
   33        0.020513
   34       -0.000323
   35        0.007447
   36        0.003464
   37       -0.000067
   38        0.005080
   39        0.000087
   40        0.000073
   41       -0.005646
   42       -0.005500
   43       -0.032841
   44        0.001174
   45        0.002232
   46       -0.001157
   47       -0.002926
   48       -0.032841
   49        0.001172
   50        0.002182
   51       -0.000930
   52        0.003043
   53       -0.034898
   54       -0.001898
   55        0.000294
   56        0.004062
   57       -0.000152
   58       -0.051514
   59        0.008672
   60       -0.004598
   61        0.001835
   62       -0.000110
   63       -0.088357
   64       -0.009363
   65        0.001301
   66       -0.010741
   67        0.000421
Sym= A
Ene=   -1.1855
Spin= Alpha
Occup=  2.0000
    1       -0.103338
    2        0.216790
    3        0.154094
    4        0.015179
    5       -0.029371
    6        0.001237
    7       -0.024498
    8        0.005674
    9       -0.000431
   10       -0.006239
   11        0.000607
   12       -0.000288
   13        0.005980
   14       -0.012117
   15        0.006098
   16       -0.019111
   17        0.014075
   18       -0.223839
   19       -0.013212
   20       -0.001401
   21       -0.048359
   22       -0.004250
   23       -0.000247
   24        0.003289
   25        0.000472
   26        0.000080
   27       -0.000533
   28       -0.013748
   29        0.171672
   30       -0.324763
   31       -0.318297
   32        0.003667
   33        0.016109
   34       -0.000583
   35        0.009670
   36        0.009871
   37       -0.000293
   38        0.000234
   39        0.000068
   40        0.000023
   41        0.000578
   42       -0.001742
   43       -0.119290
   44       -0.025641
   45        0.006355
   46       -0.003603
   47       -0.009503
   48       -0.119290
   49       -0.025643
   50        0.006192
   51       -0.002867
   52        0.009854
   53       -0.112719
   54       -0.027467
   55       -0.000495
   56        0.011394
   57       -0.000437
   58        0.078911
   59        0.008679
   60        0.005794
   61       -0.002827
   62        0.000158
   63        0.001147
   64       -0.002231
   65       -0.003096
   66        0.000543
   67       -0.000047
Sym= A
Ene=   -1.0407
Spin= Alpha
Occup=  2.0000
    1       -0.100082
    2        0.225449
    3        0.188623
    4       -0.306826
    5        0.155420
    6       -0.008587
    7       -0.145769
    8        0.065657
    9       -0.003768
   10       -0.006796
   11        0.000450
   12       -0.000019
   13        0.012717
   14       -0.006133
   15        0.087328
   16       -0.178023
   17       -0.097130
   18        0.048189
   19        0.088147
   20       -0.002967
   21       -0.015577
   22        0.061067
   23       -0.002460
   24        0.008494
   25       -0.000174
   26        0.000658
   27        0.002105
   28        0.001782
   29       -0.053936
   30        0.105035
   31        0.108998
   32        0.055147
   33        0.045224
   34       -0.001259
   35        0.017911
   36        0.003518
   37        0.000016
   38        0.003741
   39        0.000143
   40        0.000003
   41       -0.004999
   42       -0.006310
   43        0.048721
   44        0.017481
   45       -0.001822
   46        0.002021
   47        0.003392
   48        0.048718
   49        0.017479
   50       -0.001763
   51        0.001756
   52       -0.003566
   53        0.064036
   54        0.029546
   55        0.000397
   56       -0.004976
   57        0.000192
   58        0.262287
   59        0.076414
   60        0.017515
   61       -0.006581
   62        0.000404
   63       -0.118663
   64       -0.038848
   65        0.001104
   66       -0.010530
   67        0.000411
Sym= A
Ene=   -0.9220
Spin= Alpha
Occup=  2.0000
    1       -0.025697
    2        0.054418
    3        0.042666
    4        0.294840
    5       -0.045591
    6        0.004273
    7        0.103628
    8       -0.025162
    9        0.001855
   10        0.001549
   11       -0.000170
   12        0.000466
   13        0.008220
   14        0.005562
   15        0.034732
   16       -0.075484
   17       -0.167354
   18       -0.197088
   19        0.348026
   20       -0.014956
   21       -0.019041
   22        0.156490
   23       -0.006139
   24        0.004690
   25        0.000608
   26        0.000730
   27        0.014172
   28       -0.014638
   29       -0.017852
   30        0.035602
   31        0.023295
   32       -0.003063
   33        0.162432
   34       -0.006223
   35        0.000939
   36        0.065877
   37       -0.002503
   38       -0.003265
   39        0.000393
   40       -0.000358
   41       -0.001676
   42       -0.009452
   43       -0.011289
   44       -0.005429
   45        0.000736
   46        0.002169
   47       -0.000576
   48       -0.011308
   49       -0.005440
   50        0.000728
   51        0.002206
   52        0.000423
   53        0.104826
   54        0.053211
   55       -0.000275
   56       -0.006246
   57        0.000235
   58       -0.125483
   59       -0.058907
   60       -0.007011
   61        0.004441
   62       -0.000231
   63       -0.229453
   64       -0.104835
   65       -0.003345
   66       -0.012996
   67        0.000468
Sym= A
Ene=   -0.8136
Spin= Alpha
Occup=  2.0000
    1        0.020284
    2       -0.042493
    3       -0.018896
    4       -0.053486
    5        0.148608
    6       -0.006173
    7       -0.015943
    8        0.043237
    9       -0.001809
   10        0.000622
   11       -0.000315
   12        0.000551
   13        0.011007
   14        0.010416
   15       -0.051058
   16        0.111559
   17        0.190099
   18        0.333548
   19        0.223299
   20       -0.005734
   21        0.187136
   22        0.153834
   23       -0.004305
   24       -0.002903
   25       -0.000247
   26       -0.000144
   27       -0.000398
   28        0.007548
   29        0.027757
   30       -0.044949
   31       -0.168547
   32       -0.352671
   33       -0.101064
   34        0.000760
   35       -0.106023
   36       -0.019906
   37       -0.000191
   38       -0.017941
   39       -0.000365
   40       -0.000378
   41        0.016549
   42        0.020103
   43       -0.114935
   44       -0.073632
   45       -0.001224
   46       -0.004157
   47       -0.006602
   48       -0.115044
   49       -0.073698
   50       -0.001333
   51       -0.003647
   52        0.006881
   53       -0.070349
   54       -0.042118
   55       -0.005875
   56        0.003365
   57       -0.000179
   58        0.039525
   59        0.025913
   60        0.002924
   61        0.001566
   62       -0.000035
   63       -0.084468
   64       -0.034174
   65        0.005399
   66       -0.005320
   67        0.000248
Sym= A
Ene=   -0.8030
Spin= Alpha
Occup=  2.0000
    1       -0.000001
    2        0.000002
    3        0.000025
    4       -0.001435
    5        0.006353
    6        0.165210
    7       -0.000712
    8        0.003212
    9        0.083811
   10        0.000523
   11        0.012191
   12       -0.005200
   13        0.000098
   14        0.000512
   15       -0.000009
   16        0.000021
   17        0.000027
   18       -0.001518
   19        0.007271
   20        0.189300
   21       -0.000808
   22        0.003908
   23        0.101556
   24       -0.000595
   25       -0.000107
   26        0.008953
   27       -0.000343
   28       -0.000078
   29        0.000006
   30       -0.000008
   31       -0.000041
   32       -0.003550
   33        0.015518
   34        0.407162
   35       -0.001785
   36        0.007886
   37        0.206700
   38        0.001430
   39        0.012549
   40       -0.019020
   41        0.000621
   42        0.000642
   43       -0.205467
   44       -0.129128
   45        0.008700
   46       -0.003750
   47       -0.005610
   48        0.205368
   49        0.129063
   50       -0.008602
   51        0.003308
   52       -0.006018
   53        0.000026
   54        0.000018
   55       -0.000052
   56        0.000222
   57        0.005885
   58        0.000011
   59        0.000014
   60       -0.000033
   61        0.000145
   62        0.003778
   63       -0.000016
   64       -0.000003
   65       -0.000029
   66        0.000136
   67        0.003592
Sym= A
Ene=   -0.7625
Spin= Alpha
Occup=  2.0000
    1       -0.024180
    2        0.060147
    3        0.054912
    4        0.106307
    5       -0.000353
    6        0.000930
    7        0.028100
    8       -0.005421
    9        0.000451
   10        0.001881
   11       -0.000089
   12        0.000350
   13        0.005286
   14        0.002773
   15        0.006477
   16       -0.015233
   17       -0.026404
   18       -0.029777
   19        0.160162
   20       -0.006361
   21        0.020558
   22        0.089387
   23       -0.003234
   24        0.003186
   25        0.000642
   26        0.000885