[Molden Format]
[GTO]
    1 0
 s  10 1.00
    3047.5249000    0.0018347000
     457.3695100    0.0140373000
     103.9486900    0.0688426000
      29.2101550    0.2321844000
       9.2866630    0.4679413000
       3.1639270    0.3623120000
       7.8682724    0.0000000000
       1.8812885    0.0000000000
       0.5442493    0.0000000000
       0.1687144    0.0000000000
 s  10 1.00
    3047.5249000    0.0000000000
     457.3695100    0.0000000000
     103.9486900    0.0000000000
      29.2101550    0.0000000000
       9.2866630    0.0000000000
       3.1639270    0.0000000000
       7.8682724   -0.1193324000
       1.8812885   -0.1608542000
       0.5442493    1.1434564000
       0.1687144    0.0000000000
 s  10 1.00
    3047.5249000    0.0000000000
     457.3695100    0.0000000000
     103.9486900    0.0000000000
      29.2101550    0.0000000000
       9.2866630    0.0000000000
       3.1639270    0.0000000000
       7.8682724    0.0000000000
       1.8812885    0.0000000000
       0.5442493    0.0000000000
       0.1687144    1.0000000000
 p   4 1.00
       7.8682724    0.0689991000
       1.8812885    0.3164240000
       0.5442493    0.7443083000
       0.1687144    0.0000000000
 p   4 1.00
       7.8682724    0.0000000000
       1.8812885    0.0000000000
       0.5442493    0.0000000000
       0.1687144    1.0000000000

    2 0
 s  10 1.00
    3047.5249000    0.0018347000
     457.3695100    0.0140373000
     103.9486900    0.0688426000
      29.2101550    0.2321844000
       9.2866630    0.4679413000
       3.1639270    0.3623120000
       7.8682724    0.0000000000
       1.8812885    0.0000000000
       0.5442493    0.0000000000
       0.1687144    0.0000000000
 s  10 1.00
    3047.5249000    0.0000000000
     457.3695100    0.0000000000
     103.9486900    0.0000000000
      29.2101550    0.0000000000
       9.2866630    0.0000000000
       3.1639270    0.0000000000
       7.8682724   -0.1193324000
       1.8812885   -0.1608542000
       0.5442493    1.1434564000
       0.1687144    0.0000000000
 s  10 1.00
    3047.5249000    0.0000000000
     457.3695100    0.0000000000
     103.9486900    0.0000000000
      29.2101550    0.0000000000
       9.2866630    0.0000000000
       3.1639270    0.0000000000
       7.8682724    0.0000000000
       1.8812885    0.0000000000
       0.5442493    0.0000000000
       0.1687144    1.0000000000
 p   4 1.00
       7.8682724    0.0689991000
       1.8812885    0.3164240000
       0.5442493    0.7443083000
       0.1687144    0.0000000000
 p   4 1.00
       7.8682724    0.0000000000
       1.8812885    0.0000000000
       0.5442493    0.0000000000
       0.1687144    1.0000000000

    3 0
 s  10 1.00
    3047.5249000    0.0018347000
     457.3695100    0.0140373000
     103.9486900    0.0688426000
      29.2101550    0.2321844000
       9.2866630    0.4679413000
       3.1639270    0.3623120000
       7.8682724    0.0000000000
       1.8812885    0.0000000000
       0.5442493    0.0000000000
       0.1687144    0.0000000000
 s  10 1.00
    3047.5249000    0.0000000000
     457.3695100    0.0000000000
     103.9486900    0.0000000000
      29.2101550    0.0000000000
       9.2866630    0.0000000000
       3.1639270    0.0000000000
       7.8682724   -0.1193324000
       1.8812885   -0.1608542000
       0.5442493    1.1434564000
       0.1687144    0.0000000000
 s  10 1.00
    3047.5249000    0.0000000000
     457.3695100    0.0000000000
     103.9486900    0.0000000000
      29.2101550    0.0000000000
       9.2866630    0.0000000000
       3.1639270    0.0000000000
       7.8682724    0.0000000000
       1.8812885    0.0000000000
       0.5442493    0.0000000000
       0.1687144    1.0000000000
 p   4 1.00
       7.8682724    0.0689991000
       1.8812885    0.3164240000
       0.5442493    0.7443083000
       0.1687144    0.0000000000
 p   4 1.00
       7.8682724    0.0000000000
       1.8812885    0.0000000000
       0.5442493    0.0000000000
       0.1687144    1.0000000000

    4 0
 s  10 1.00
    3047.5249000    0.0018347000
     457.3695100    0.0140373000
     103.9486900    0.0688426000
      29.2101550    0.2321844000
       9.2866630    0.4679413000
       3.1639270    0.3623120000
       7.8682724    0.0000000000
       1.8812885    0.0000000000
       0.5442493    0.0000000000
       0.1687144    0.0000000000
 s  10 1.00
    3047.5249000    0.0000000000
     457.3695100    0.0000000000
     103.9486900    0.0000000000
      29.2101550    0.0000000000
       9.2866630    0.0000000000
       3.1639270    0.0000000000
       7.8682724   -0.1193324000
       1.8812885   -0.1608542000
       0.5442493    1.1434564000
       0.1687144    0.0000000000
 s  10 1.00
    3047.5249000    0.0000000000
     457.3695100    0.0000000000
     103.9486900    0.0000000000
      29.2101550    0.0000000000
       9.2866630    0.0000000000
       3.1639270    0.0000000000
       7.8682724    0.0000000000
       1.8812885    0.0000000000
       0.5442493    0.0000000000
       0.1687144    1.0000000000
 p   4 1.00
       7.8682724    0.0689991000
       1.8812885    0.3164240000
       0.5442493    0.7443083000
       0.1687144    0.0000000000
 p   4 1.00
       7.8682724    0.0000000000
       1.8812885    0.0000000000
       0.5442493    0.0000000000
       0.1687144    1.0000000000

    5 0
 s   4 1.00
      18.7311370    0.0334946000
       2.8253937    0.2347269500
       0.6401217    0.8137573300
       0.1612778    0.0000000000
 s   4 1.00
      18.7311370    0.0000000000
       2.8253937    0.0000000000
       0.6401217    0.0000000000
       0.1612778    1.0000000000

    6 0
 s   4 1.00
      18.7311370    0.0334946000
       2.8253937    0.2347269500
       0.6401217    0.8137573300
       0.1612778    0.0000000000
 s   4 1.00
      18.7311370    0.0000000000
       2.8253937    0.0000000000
       0.6401217    0.0000000000
       0.1612778    1.0000000000

    7 0
 s   4 1.00
      18.7311370    0.0334946000
       2.8253937    0.2347269500
       0.6401217    0.8137573300
       0.1612778    0.0000000000
 s   4 1.00
      18.7311370    0.0000000000
       2.8253937    0.0000000000
       0.6401217    0.0000000000
       0.1612778    1.0000000000

    8 0
 s   4 1.00
      18.7311370    0.0334946000
       2.8253937    0.2347269500
       0.6401217    0.8137573300
       0.1612778    0.0000000000
 s   4 1.00
      18.7311370    0.0000000000
       2.8253937    0.0000000000
       0.6401217    0.0000000000
       0.1612778    1.0000000000

    9 0
 s   4 1.00
      18.7311370    0.0334946000
       2.8253937    0.2347269500
       0.6401217    0.8137573300
       0.1612778    0.0000000000
 s   4 1.00
      18.7311370    0.0000000000
       2.8253937    0.0000000000
       0.6401217    0.0000000000
       0.1612778    1.0000000000

   10 0
 s   4 1.00
      18.7311370    0.0334946000
       2.8253937    0.2347269500
       0.6401217    0.8137573300
       0.1612778    0.0000000000
 s   4 1.00
      18.7311370    0.0000000000
       2.8253937    0.0000000000
       0.6401217    0.0000000000
       0.1612778    1.0000000000

[SCFCONV]
scf-first  1  THROUGH  14
     -154.0935042583
     -154.6825323072
     -154.7431913704
     -154.7495639058
     -154.7504142071
     -154.7506525739
     -154.7506741515
     -154.7506776386
     -154.7506779086
     -154.7506779533
     -154.7506779849
     -154.7506780112
     -154.7506780214
     -154.7506780218
[FREQ]
   3346.51
   3309.02
   3292.08
   3274.36
   3227.82
   3209.10
   1821.28
   1641.59
   1638.44
   1597.46
   1576.13
   1426.64
   1287.28
   1247.01
   1133.70
   1122.65
   1096.20
    972.40
    832.17
    665.54
    393.17
    286.20
    160.71
    282.78

[FR-COORD]
 C       -13.5233044372         1.2627314770        -0.0064715514
 C       -10.8134171822         1.8039639145         0.0071192780
 C        -9.7890209873         4.1090900511         0.0054302804
 C       -11.1619398490         6.5924655491        -0.0095305849
 H       -12.5147148950         6.6853222405        -1.5396740711
 H        -9.8462206580         8.1459323857        -0.1849135320
 H       -12.2411011608         6.8401187033         1.7135904091
 H       -14.0272047494        -0.7239578476        -0.0544896114
 H        -9.5977953134         0.1782170212         0.0163198938
 H        -7.7578401380         4.2120908617         0.0194168360

[FR-NORM-COORD]
Vibration          1
           0.00179166           0.00624610           0.00012453
          -0.02018036           0.03689707          -0.00014544
          -0.07261890          -0.00959119          -0.00047212
          -0.01073006          -0.00923714          -0.00106438
           0.04203263          -0.00583520           0.05033335
           0.08798943           0.10756603          -0.01207742
           0.01254478          -0.00604586          -0.02521400
          -0.01977772          -0.07425983          -0.00159812
           0.27022580          -0.35887849           0.00195358
           0.81835792           0.04794069           0.00514647
Vibration          2
          -0.00337144          -0.01365642          -0.00028277
           0.04031358          -0.05655215           0.00032693
          -0.03519983           0.00069158          -0.00029167
          -0.01347711          -0.00782630          -0.00285177
           0.06246827          -0.00554082           0.07486110
           0.08566245           0.10206534          -0.01247126
           0.01251845          -0.00577128          -0.02813396
           0.04056540           0.15736654           0.00359814
          -0.49635284           0.65106146          -0.00370700
           0.43486260           0.02173203           0.00275561
Vibration          3
           0.00107281           0.00343501          -0.00009842
          -0.00411018           0.00402011           0.00016366
           0.01702258           0.00173129          -0.00008841
          -0.07052255          -0.03518953          -0.03357259
           0.44078887          -0.03228781           0.51723097
           0.40216799           0.46898482          -0.06230469
           0.00364971          -0.01477308          -0.05149034
          -0.01036874          -0.04406350           0.00092545
           0.04279471          -0.05536346          -0.00037734
          -0.20585204          -0.01288231          -0.00396509
Vibration          4
          -0.00056038          -0.00148084          -0.00022531
           0.00061016           0.00011006           0.00020389
          -0.00518114          -0.00122401          -0.00058336
           0.02731688           0.02154656          -0.07861153
           0.32377844          -0.01121405           0.33433868
          -0.28057021          -0.32541172           0.01886353
          -0.37438154           0.08561409           0.59163170
           0.00451639           0.01788835           0.00305948
          -0.00260794           0.00364340          -0.00132902
           0.06510562           0.00382441          -0.00334920
Vibration          5
          -0.02406698          -0.07513428          -0.00174415
          -0.00447160           0.01158800          -0.00007185
           0.00054225          -0.00002426           0.00001781
          -0.00276159          -0.00098292           0.00045275
           0.01028752          -0.00061100           0.01326581
           0.01258677           0.01643121          -0.00186475
           0.00945617          -0.00250513          -0.01726294
           0.24183192           0.90611202           0.02104505
           0.11172698          -0.14898224           0.00091643
          -0.01965994          -0.00181792          -0.00007961
Vibration          6
          -0.00016436          -0.00049662           0.00002365
           0.00041229          -0.00043219           0.00003631
           0.00191573           0.00186192          -0.00011110
           0.02373096          -0.04270476          -0.01101021
          -0.30826386           0.00816594          -0.36512668
           0.36943262           0.41653540          -0.05204960
          -0.33693050           0.06378724           0.55002379
           0.00194895           0.00977076           0.00002760
          -0.00398264           0.00199560          -0.00009227
          -0.03052737          -0.00288696          -0.00107724
Vibration          7
           0.00080915           0.01762554           0.00064781
          -0.08448497          -0.15816972          -0.00043697
           0.05668431           0.19204572          -0.00072383
          -0.00852726          -0.03165925           0.00149150
          -0.01394741           0.05729094           0.01309836
           0.07451722          -0.10730681          -0.01402743
          -0.01866615           0.02645101          -0.01401264
           0.10574371          -0.01051145          -0.00328261
           0.17161355           0.00211624           0.00364122
           0.10365501          -0.20429875           0.00293223
Vibration          8
           0.00498503           0.00111183          -0.00240512
           0.00174654          -0.00901762           0.00009709
          -0.01662799           0.01377382           0.00958459
          -0.00870425          -0.05971003           0.03114450
           0.41933034           0.39541585          -0.32151886
          -0.42853308           0.28783762          -0.31786654
           0.29295829           0.01375210           0.18890239
          -0.00442594           0.00242106           0.01560548
          -0.04094952          -0.04178877          -0.01011011
          -0.01690497          -0.01655047          -0.01248527
Vibration          9
           0.00193226           0.00197908           0.00378953
          -0.00408851          -0.01096961           0.00014120
          -0.00670715           0.00886454          -0.01456389
          -0.01336469          -0.03185219          -0.04720093
           0.04626008          -0.28332345          -0.08553918
          -0.15319778           0.18119062           0.63570892
           0.37080247           0.48842009           0.13532093
           0.00742164           0.00128675          -0.02360468
           0.00058171          -0.00794693           0.01529346
          -0.00720198           0.00113174           0.01144122
Vibration         10
          -0.00213130           0.02335230           0.00044623
          -0.08945249          -0.04043277          -0.00129765
           0.04026780          -0.07564778           0.00129649
          -0.02982828           0.05055327           0.00411832
           0.14984583          -0.14759490          -0.15803053
           0.07334118          -0.03744644          -0.03486194
           0.15293732          -0.15967433           0.13919077
           0.09518209           0.00414685          -0.00180945
           0.48001956           0.39065736           0.00589606
           0.01484507           0.45208165          -0.00472052
Vibration         11
          -0.00152340           0.01064049           0.00006243
          -0.03720241          -0.01056938          -0.00030566
           0.02147948          -0.04480138          -0.00098854
           0.06390706          -0.06872149          -0.00274437
          -0.26050904           0.37403155           0.28541931
          -0.27536481           0.23032544           0.02251878
          -0.29797323           0.36278663          -0.26760062
           0.03964119           0.00193451          -0.00025395
           0.23131655           0.19480380           0.00233164
           0.00730801           0.18696868           0.00492799
Vibration         12
           0.06834326          -0.02658081           0.00004080
          -0.07645340          -0.03202870           0.00077332
           0.02382191           0.03787783          -0.00217999
           0.03267549          -0.00750248           0.00194733
           0.00411901          -0.03898764           0.02526867
           0.00864361           0.00964364          -0.00269676
          -0.01531261          -0.01827405          -0.02552533
          -0.10560825           0.02704492           0.00011857
          -0.45883218          -0.33120440          -0.00435406
          -0.00914848           0.68795671           0.00026558
Vibration         13
           0.09690182          -0.04167246          -0.00128408
          -0.09101499           0.07329236           0.00014678
           0.10023570          -0.04111109           0.00294097
          -0.10092467          -0.01237085          -0.00185878
          -0.00485095           0.29999897          -0.06414849
           0.18860569          -0.24190844           0.01546726
           0.04813914           0.23967613           0.05265698
          -0.33133560           0.08522077           0.00819472
          -0.07277341           0.08173518          -0.00240656
           0.11032505          -0.20441490          -0.00910779
Vibration         14
           0.00325164          -0.00051066           0.00301508
          -0.00168300           0.00322405           0.05696863
          -0.00035738          -0.00181710          -0.14718554
          -0.00100817          -0.00079232           0.09203525
           0.18817268          -0.24717960          -0.09774950
           0.00857735          -0.03801573          -0.18136316
          -0.19266537           0.28739248          -0.07911787
          -0.01000976           0.00444547          -0.04420322
           0.00799767           0.00913128          -0.19217246
          -0.00449079          -0.01701195           0.53705542
Vibration         15
          -0.13640643          -0.00212172          -0.00049917
           0.11309102           0.01353329          -0.00491665
           0.02965715           0.02846041          -0.00175015
          -0.05273440          -0.07360095           0.00902664
           0.06004176           0.25826665          -0.06610402
           0.28682886          -0.35152049          -0.00466289
           0.06443644           0.25394937           0.03042121
           0.09345968          -0.07521872           0.00049334
           0.03506076          -0.03979016           0.04655264
           0.01256186           0.35591844          -0.02885507
Vibration         16
           0.01355555          -0.00383166           0.01454956
          -0.00717464           0.00543959          -0.09407519
          -0.00999193           0.00404352           0.00091367
           0.00987355          -0.00365324           0.07997143
           0.17341283          -0.28100310          -0.08943527
          -0.00740340          -0.01697267          -0.16204995
          -0.18915546           0.26303244          -0.09195518
          -0.05641599           0.01737464          -0.04921717
           0.01189719           0.02416601           0.67125753
          -0.00690203          -0.03038972          -0.29478698
Vibration         17
           0.01954204           0.07086953           0.00212011
          -0.03122729          -0.03785084          -0.00802815
           0.03700567          -0.08644675          -0.00136580
          -0.06350343           0.06537123           0.00684717
          -0.02551809           0.12757126          -0.02520207
           0.01650092           0.00161225          -0.01463766
          -0.04130607           0.15524928           0.00753298
           0.71737424          -0.11359847          -0.00058099
          -0.25300916          -0.20526305           0.05102945
           0.04059665          -0.10777654          -0.01306137
Vibration         18
          -0.09497070          -0.04822993           0.00011205
           0.06029633          -0.08149728          -0.00333918
           0.12829655          -0.02527443          -0.00167180
          -0.04814127           0.14095854           0.00223509
          -0.06085805           0.00614723           0.00200478
          -0.19146068           0.26528659          -0.01041623
          -0.08019352           0.04250796          -0.00210630
          -0.32443466           0.00412243          -0.00236569
          -0.01954426          -0.15004055           0.03384406
           0.13495770          -0.00081489           0.01075725
Vibration         19
           0.00207336           0.00161119           0.04317810
           0.00128324           0.00101156          -0.06907928
          -0.00349064           0.00074862          -0.06334276
          -0.00034652          -0.00429751          -0.02996760
          -0.12058228           0.25916501           0.10173675
          -0.00112983           0.01882877           0.17004326
           0.14199541          -0.28517355           0.10853819
          -0.00213492           0.00519687          -0.06841500
          -0.00387349           0.00051611           0.52726835
          -0.00855297           0.01249410           0.58025981
Vibration         20
          -0.09195955          -0.05923355           0.00021589
          -0.06712117           0.13253987          -0.00179355
           0.13541252           0.03931026          -0.00092175
           0.01874381          -0.07279061           0.00075368
          -0.00363951          -0.24717265           0.00950434
          -0.18492660           0.09553989          -0.00112363
          -0.02328374          -0.21476944          -0.00483718
           0.25607586          -0.14864013           0.00172424
          -0.12265568           0.08835148           0.00845542
           0.13706345          -0.04751025           0.00706278
Vibration         21
           0.00051138          -0.00094545          -0.07509718
          -0.00126773           0.00005811           0.17226936
          -0.00027610          -0.00050004          -0.13299115
           0.00068848           0.00138734           0.03293833
          -0.08843868           0.12099097           0.11893931
          -0.01059419           0.01583145           0.08322578
           0.09768050          -0.13650542           0.11402354
           0.00518522           0.00112304          -0.21157015
          -0.00110169           0.00087164           0.29332986
           0.00136435          -0.00231123          -0.36364904
Vibration         22
           0.02723632           0.17843706           0.00549279
           0.05224337          -0.01811694           0.00185727
           0.06119181          -0.02619207           0.00461401
          -0.09386911          -0.11421768          -0.00324780
          -0.12156079          -0.23145489           0.01756755
          -0.21028746          -0.01942402          -0.03284286
          -0.09580239          -0.18216426           0.00402982
          -0.16575353           0.22837496          -0.08487554
          -0.02076525          -0.07235714          -0.00768544
           0.05690144           0.03995595           0.00002333
Vibration         23
           0.00335362           0.01965554          -0.04512162
           0.00492979          -0.00321197          -0.00093689
           0.00557830          -0.00262663          -0.04772433
          -0.00804423          -0.01000699           0.02719240
           0.22859805           0.13018214          -0.18024519
           0.00318104           0.02090571           0.39257540
          -0.28630818          -0.19996501          -0.12507009
          -0.02075541           0.00791059           0.72374664
           0.00056696          -0.00598860           0.04619496
           0.00544982           0.00159075          -0.06432079
Vibration         24
           0.00140804           0.00508124          -0.10403332
           0.00080831          -0.00099945           0.00247168
          -0.00027426           0.00055140           0.01280898
          -0.00186151          -0.00327531           0.01340350
          -0.30820684          -0.17185233           0.27750986
          -0.03291274          -0.01947567          -0.36733558
           0.34527406           0.17917478           0.20846063
          -0.00547088          -0.00815152           0.54681321
           0.00124399           0.00018678           0.11429926
          -0.00088693           0.00394974           0.11742229
[TITLE]
*** Dalton interface to Molden, wave function type : HF            26Mar24   11:
[Atoms] AU
C          1     6       -13.5233044372         1.2627314770        -0.006471551
C          2     6       -10.8134171822         1.8039639145         0.007119278
C          3     6        -9.7890209873         4.1090900511         0.005430280
C          4     6       -11.1619398490         6.5924655491        -0.009530584
H          5     1       -12.5147148950         6.6853222405        -1.539674071
H          6     1        -9.8462206580         8.1459323857        -0.184913532
H          7     1       -12.2411011608         6.8401187033         1.713590409
H          8     1       -14.0272047494        -0.7239578476        -0.054489611
H          9     1        -9.5977953134         0.1782170212         0.016319893
H         10     1        -7.7578401380         4.2120908617         0.019416836
[5D7F]
[9G]
[MO]
Sym= A
Ene=  -11.2851
Spin= Alpha
Occup=  2.0000
    1        0.000105
    2       -0.000137
    3       -0.000910
    4       -0.000162
    5       -0.000089
    6       -0.000002
    7       -0.000243
    8       -0.000134
    9        0.000007
   10        0.013060
   11       -0.000640
   12        0.006432
   13       -0.000022
   14       -0.000225
   15        0.000003
   16       -0.000210
   17        0.003105
   18       -0.000025
   19        0.996120
   20        0.024793
   21       -0.017789
   22        0.000016
   23       -0.000042
   24       -0.000009
   25        0.002076
   26        0.000144
   27        0.000045
   28        0.005828
   29       -0.000303
   30        0.004066
   31       -0.000142
   32        0.000055
   33        0.000022
   34        0.001306
   35       -0.002213
   36       -0.000132
   37       -0.000189
   38        0.000403
   39       -0.000111
   40       -0.000074
   41       -0.000187
   42        0.000594
   43        0.000033
   44        0.000197
   45       -0.000041
   46        0.000528
   47       -0.000208
   48        0.002326
Sym= A
Ene=  -11.2373
Spin= Alpha
Occup=  2.0000
    1       -0.995854
    2       -0.023212
    3        0.013973
    4       -0.002109
    5        0.002140
    6        0.000036
    7        0.003444
    8       -0.003165
    9       -0.000058
   10       -0.032677
   11       -0.000238
   12       -0.003031
   13       -0.000342
   14       -0.000243
   15       -0.000001
   16        0.002769
   17        0.003318
   18        0.000020
   19        0.000581
   20        0.000330
   21       -0.002616
   22       -0.000103
   23       -0.000051
   24       -0.000002
   25        0.000986
   26        0.001237
   27        0.000009
   28        0.000652
   29        0.000037
   30        0.000246
   31       -0.000015
   32       -0.000094
   33        0.000006
   34       -0.000142
   35       -0.000010
   36       -0.000038
   37        0.000016
   38       -0.000131
   39        0.000009
   40       -0.000094
   41        0.000008
   42       -0.000052
   43        0.000121
   44       -0.004041
   45        0.000335
   46        0.000497
   47       -0.000017
   48       -0.000463
Sym= A
Ene=  -11.2300
Spin= Alpha
Occup=  2.0000
    1        0.000740
    2       -0.000084
    3        0.000303
    4       -0.000029
    5       -0.000126
    6       -0.000009
    7        0.000346
    8        0.000330
    9        0.000030
   10       -0.002714
   11       -0.000221
   12        0.000178
   13        0.000015
   14       -0.000156
   15        0.000002
   16        0.000471
   17        0.000547
   18       -0.000010
   19       -0.005962
   20       -0.000607
   21        0.004265
   22        0.000054
   23       -0.000179
   24        0.000002
   25       -0.001180
   26        0.002756
   27       -0.000004
   28        0.996176
   29        0.026135
   30       -0.019180
   31        0.000110
   32       -0.000159
   33        0.000032
   34       -0.000468
   35        0.001097
   36       -0.000083
   37        0.000085
   38        0.003206
   39        0.000037
   40        0.003154
   41        0.000079
   42        0.003268
   43       -0.000001
   44        0.000282
   45        0.000019
   46        0.000314
   47       -0.000131
   48        0.000054
Sym= A
Ene=  -11.2248
Spin= Alpha
Occup=  2.0000
    1        0.032905
    2        0.001423
    3       -0.005490
    4        0.000181
    5       -0.000064
    7       -0.002458
    8       -0.000601
    9       -0.000007
   10       -0.995503
   11       -0.025179
   12        0.018079
   13       -0.000029
   14       -0.000376
   15        0.000002
   16       -0.001506
   17        0.002033
   18       -0.000022
   19        0.013657
   20        0.001349
   21       -0.006966
   22       -0.000168
   23       -0.000257
   24       -0.000001
   25        0.002360
   26        0.001910
   27        0.000017
   28       -0.002662
   29       -0.000048
   30        0.001265
   31        0.000045
   32       -0.000176
   33        0.000003
   34        0.000057
   35       -0.000311
   36       -0.000027
   37       -0.000008
   38       -0.000115
   39       -0.000059
   40       -0.000235
   41       -0.000001
   42       -0.000089
   43        0.000127
   44        0.000164
   45        0.000250
   46       -0.002103
   47        0.000046
   48       -0.000376
Sym= A
Ene=   -1.1008
Spin= Alpha
Occup=  2.0000
    1       -0.052231
    2        0.106602
    3        0.058915
    4        0.065376
    5        0.004859
    6        0.000037
    7        0.002188
    8       -0.004208
    9       -0.000254
   10       -0.130763
   11        0.255840
   12        0.179655
   13        0.013587
   14        0.083205
   15       -0.000294
   16       -0.003205
   17       -0.004029