

     ************************************************************************
     *************** Dalton - An Electronic Structure Program ***************
     ************************************************************************

    This is output from DALTON release Dalton2022.0-dev (2022)
         ( Web site: http://daltonprogram.org )

   ----------------------------------------------------------------------------

    NOTE:
     
    Dalton is an experimental code for the evaluation of molecular
    properties using (MC)SCF, DFT, CI, and CC wave functions.
    The authors accept no responsibility for the performance of
    the code or for the correctness of the results.
     
    The code (in whole or part) is provided under a licence and
    is not to be reproduced for further distribution without
    the written permission of the authors or their representatives.
     
    See the home page "http://daltonprogram.org" for further information.
     
    If results obtained with this code are published,
    the appropriate citations would be both of:
     
       K. Aidas, C. Angeli, K. L. Bak, V. Bakken,
       R. Bast, L. Boman, O. Christiansen, R. Cimiraglia,
       S. Coriani, P. Dahle, E. K. Dalskov, U. Ekstroem,
       T. Enevoldsen, J. J. Eriksen, P. Ettenhuber, B. Fernandez,
       L. Ferrighi, H. Fliegl, L. Frediani, K. Hald, A. Halkier,
       C. Haettig, H. Heiberg, T. Helgaker, A. C. Hennum,
       H. Hettema, E. Hjertenaes, S. Hoest, I.-M. Hoeyvik,
       M. F. Iozzi, B. Jansik, H. J. Aa. Jensen, D. Jonsson,
       P. Joergensen, J. Kauczor, S. Kirpekar,
       T. Kjaergaard, W. Klopper, S. Knecht, R. Kobayashi, H. Koch,
       J. Kongsted, A. Krapp, K. Kristensen, A. Ligabue,
       O. B. Lutnaes, J. I. Melo, K. V. Mikkelsen, R. H. Myhre,
       C. Neiss, C. B. Nielsen, P. Norman, J. Olsen,
       J. M. H. Olsen, A. Osted, M. J. Packer, F. Pawlowski,
       T. B. Pedersen, P. F. Provasi, S. Reine, Z. Rinkevicius,
       T. A. Ruden, K. Ruud, V. Rybkin, P. Salek, C. C. M. Samson,
       A. Sanchez de Meras, T. Saue, S. P. A. Sauer,
       B. Schimmelpfennig, K. Sneskov, A. H. Steindal,
       K. O. Sylvester-Hvid, P. R. Taylor, A. M. Teale,
       E. I. Tellgren, D. P. Tew, A. J. Thorvaldsen, L. Thoegersen,
       O. Vahtras, M. A. Watson, D. J. D. Wilson, M. Ziolkowski
       and H. Agren,
       "The Dalton quantum chemistry program system",
       WIREs Comput. Mol. Sci. 2014, 4:269-284 (doi: 10.1002/wcms.1172)
     
    and
     
       Dalton, a molecular electronic structure program,
       Release Dalton2022.0-dev (2022), see http://daltonprogram.org
   ----------------------------------------------------------------------------

    Authors in alphabetical order (Major contribution(s) in parenthesis):

  Kestutis Aidas,              Vilnius University,        Lithuania   (QM/MM)
  Celestino Angeli,            University of Ferrara,     Italy       (NEVPT2)
  Juan J. Aucar,               Northeast National UniversiArgentina   (LRESC, Relativistic Effects on EFG)
  Keld L. Bak,                 UNI-C,                     Denmark     (AOSOPPA, non-adiabatic coupling, magnetic properties)
  Vebjoern Bakken,             University of Oslo,        Norway      (DALTON; geometry optimizer, symmetry detection)
  Radovan Bast,                UiT The Arctic U. of NorwayNorway      (DALTON installation and execution frameworks)
  Pablo Baudin,                University of Valencia,    Spain       (Cholesky excitation energies)
  Linus Boman,                 NTNU,                      Norway      (Cholesky decomposition and subsystems)
  Bruno N. Cabral Tenorio,     Technical Univ. of Denmark,Denmark     (Lanczos-based CC methods)
  Ove Christiansen,            Aarhus University,         Denmark     (CC module)
  Renzo Cimiraglia,            University of Ferrara,     Italy       (NEVPT2)
  Sonia Coriani,               Technical Univ. of Denmark,Denmark     (CC and RESPONS modules)
  Janusz Cukras,               University of Warsaw,      Poland      (MChD in RESPONS)
  Paal Dahle,                  University of Oslo,        Norway      (Parallelization)
  Erik K. Dalskov,             UNI-C,                     Denmark     (SOPPA)
  Thomas Enevoldsen,           Univ. of Southern Denmark, Denmark     (SOPPA)
  Janus J. Eriksen,            Aarhus University,         Denmark     (Polarizable embedding, TDA)
  Rasmus Faber,                Technical Univ. of Denmark,Denmark     (Vib.avg. NMR w. SOPPA, parallel AO-SOPPA, CVS-CC and EOMCC)
  Tobias Fahleson,             KTH Stockholm,             Sweden      (Damped cubic response)
  Berta Fernandez,             U. of Santiago de CompostelSpain       (Doublet spin, ESR in RESPONS)
  Lara Ferrighi,               Aarhus University,         Denmark     (PCM Cubic response)
  Heike Fliegl,                University of Oslo,        Norway      (CCSD(R12))
  Luca Frediani,               UiT The Arctic U. of NorwayNorway      (PCM)
  Emmanuel Fromager,           Univ. Strasbourg,          France      (MC-srDFT)
  Bin Gao,                     UiT The Arctic U. of NorwayNorway      (Gen1Int library)
  Andre S. P. Gomes,           CNRS/Universite de Lille,  France      (Frozen density embedding)
  Christof Haettig,            Ruhr-University Bochum,    Germany     (CC module)
  Kasper Hald,                 Aarhus University,         Denmark     (CC module)
  Asger Halkier,               Aarhus University,         Denmark     (CC module)
  Frederik Beyer Hansen,       University of Copenhagen,  Denmark     (Parallel AO-SOPPA)
  Erik D. Hedegaard,           Univ. of Southern Denmark, Denmark     (Polarizable embedding, QM/MM, and MC-srDFT)
  Hanne Heiberg,               University of Oslo,        Norway      (Geometry analysis, selected one-electron integrals)
  Trygve Helgaker,             University of Oslo,        Norway      (DALTON; ABACUS, ERI, DFT modules, London, and much more)
  Alf Christian Hennum,        University of Oslo,        Norway      (Parity violation)
  Hinne Hettema,               University of Auckland,    New Zealand (Quadratic response in RESPONS; SIRIUS supersymmetry)
  Andreas E. Hillers-Bendtsen, University of Copenhagen,  Denmark     (MP3)
  Eirik Hjertenaes,            NTNU,                      Norway      (Cholesky decomposition)
  Nicolai Machholdt Hoeyer,    Aarhus University,         Denmark     (MP3)
  Pi A. B. Haase,              University of Copenhagen,  Denmark     (Triplet AO-SOPPA)
  Maria Francesca Iozzi,       University of Oslo,        Norway      (RPA)
  Christoph Jacob,             TU Braunschweig            Germany     (Frozen density embedding)
  Brano Jansik,                Technical Univ. of Ostrava Czech Rep.  (DFT cubic response)
  Hans Joergen Aa. Jensen,     Univ. of Southern Denmark, Denmark     (DALTON; SIRIUS, RESPONS, ABACUS, MC-srDFT, and much more)
  Dan Jonsson,                 UiT The Arctic U. of NorwayNorway      (Cubic response in RESPONS module)
  Poul Joergensen,             Aarhus University,         Denmark     (RESPONS, ABACUS, and CC modules)
  Maciej Kaminski,             University of Warsaw,      Poland      (CPPh in RESPONS)
  Joanna Kauczor,              Linkoeping University,     Sweden      (Complex polarization propagator (CPP) module)
  Sheela Kirpekar,             Univ. of Southern Denmark, Denmark     (Mass-velocity & Darwin integrals)
  Frederik Oersted Kjeldal,    Technical Univ. of Denmark,Denmark     (MP3)
  Erik Kjellgren,              Univ. of Southern Denmark, Denmark     (MC-srDFT)
  Wim Klopper,                 KIT Karlsruhe,             Germany     (R12 code in CC, SIRIUS, and ABACUS modules)
  Stefan Knecht,               ETH Zurich,                Switzerland (Parallel CI and MCSCF, MC-srDFT)
  Rika Kobayashi,              Australian National Univ., Australia   (DIIS in CC, London in MCSCF)
  Henrik Koch,                 NTNU,                      Norway      (CC module, Cholesky decomposition)
  Jacob Kongsted,              Univ. of Southern Denmark, Denmark     (Polarizable embedding, polarizable density embedding, QM/MM)
  Andrea Ligabue,              University of Modena,      Italy       (CTOCD, AOSOPPA)
  Nanna H. List,               Univ. of Southern Denmark, Denmark     (Polarizable embedding)
  Ola B. Lutnaes,              University of Oslo,        Norway      (DFT Hessian)
  Juan I. Melo,                University of Buenos Aires,Argentina   (LRESC, Relativistic Effects on NMR Shieldings)
  Kurt V. Mikkelsen,           University of Copenhagen,  Denmark     (MC-SCRF, QM/MM, and MP3)
  Rolf H. Myhre,               NTNU,                      Norway      (Subsystems and CC3)
  Christian Neiss,             Univ. Erlangen-Nuernberg,  Germany     (CCSD(R12))
  Christian B. Nielsen,        University of Copenhagen,  Denmark     (QM/MM)
  Patrick Norman,              KTH Stockholm,             Sweden      (Cubic response and complex frequency response in RESPONS)
  Jeppe Olsen,                 Aarhus University,         Denmark     (SIRIUS CI/density modules)
  Jogvan Magnus H. Olsen,      Aarhus University,         Denmark     (Polarizable embedding and polarizable density embedding)
  Anders Osted,                Copenhagen University,     Denmark     (QM/MM)
  Martin J. Packer,            University of Sheffield,   UK          (SOPPA)
  Filip Pawlowski,             Kazimierz Wielki UniversityPoland      (CC3)
  Morten N. Pedersen,          Univ. of Southern Denmark, Denmark     (Polarizable embedding)
  Thomas B. Pedersen,          University of Oslo,        Norway      (Cholesky decomposition)
  Patricio F. Provasi,         University of Northeastern,Argentina   (Analysis of coupling constants in localized orbitals)
  Peter Reinholdt,             Univ. of Southern Denmark, Denmark     (Polarizable embedding and polarizable density embedding)
  Zilvinas Rinkevicius,        KTH Stockholm,             Sweden      (open-shell DFT, ESR)
  Elias Rudberg,               KTH Stockholm,             Sweden      (DFT grid and basis info)
  Torgeir A. Ruden,            University of Oslo,        Norway      (Numerical derivatives in ABACUS)
  Kenneth Ruud,                UiT The Arctic U. of NorwayNorway      (DALTON; ABACUS magnetic properties and much more)
  Pawel Salek,                 KTH Stockholm,             Sweden      (DALTON; DFT code)
  Claire C. M. Samson,         University of Karlsruhe    Germany     (Boys localization, r12 integrals in ERI)
  Alfredo Sanchez de Meras,    University of Valencia,    Spain       (CC module, Cholesky decomposition)
  Trond Saue,                  Paul Sabatier University,  France      (direct Fock matrix construction)
  Stephan P. A. Sauer,         University of Copenhagen,  Denmark     (SOPPA(CCSD), SOPPA prop., AOSOPPA, vibrational g-factors)
  Bernd Schimmelpfennig,       Forschungszentrum KarlsruheGermany     (AMFI module)
  Anna K. Schnack-Petersen,    University of Copenhagen,  Denmark     (RPA(D) and HRPA(D) properties in AOSOPPA)
  Kristian Sneskov,            Aarhus University,         Denmark     (Polarizable embedding, QM/MM)
  Arnfinn H. Steindal,         UiT The Arctic U. of NorwayNorway      (parallel QM/MM, polarizable embedding)
  Casper Steinmann,            Aalborg University,        Denmark     (QFIT, polarizable embedding)
  K. O. Sylvester-Hvid,        University of Copenhagen,  Denmark     (MC-SCRF)
  Peter R. Taylor,             VLSCI/Univ. of Melbourne,  Australia   (Symmetry handling ABACUS, integral transformation)
  Andrew M. Teale,             University of Nottingham,  England     (DFT-AC, DFT-D)
  David P. Tew,                University of Bristol,     England     (CCSD(R12))
  Julien Toulouse,             Sorbonne Univ.,            France      (MC-srDFT)
  Olav Vahtras,                KTH Stockholm,             Sweden      (Triplet response, spin-orbit, ESR, TDDFT, open-shell DFT)
  Lucas Visscher,              Vrije Universiteit AmsterdaNetherlands (Frozen density embedding)
  David J. Wilson,             La Trobe University,       Australia   (DFT Hessian and DFT magnetizabilities)
  Luna Zamok,                  University of Copenhagen,  Denmark     (Block Lanczos RPA solver in SOPPA module)
  Hans Agren,                  KTH Stockholm,             Sweden      (SIRIUS module, RESPONS, MC-SCRF solvation)
 --------------------------------------------------------------------------------

     Date and time (Linux)  : Tue Mar 26 11:25:46 2024
     Host name              : node103                                 

 * Work memory size             :    64000000 =  488.28 megabytes.

 * Directories for basis set searches:
   1) /home1/s4925076/Sample_inputs_dalton2024_updated/ex3/ketone_vib
   2) /home3/hb-qchav/Dalton/basis


Compilation information
-----------------------

 Who compiled             | p256146
 Host                     | login1
 System                   | Linux-4.18.0-425.13.1.el8_7.x86_64
 CMake generator          | Unix Makefiles
 Processor                | x86_64
 64-bit integers          | OFF
 MPI                      | ON
 Fortran compiler         | /cvmfs/hpc.rug.nl/versions/2023.01/rocky8/x86_64/a
                          | md/zen3/software/impi/2021.7.1-intel-compilers-202
                          | 2.2.1/mpi/2021.7.1/bin/mpiifort
 Fortran compiler version | unknown
 C compiler               | /cvmfs/hpc.rug.nl/versions/2023.01/rocky8/x86_64/a
                          | md/zen3/software/impi/2021.7.1-intel-compilers-202
                          | 2.2.1/mpi/2021.7.1/bin/mpiicc
 C compiler version       | unknown
 C++ compiler             | /cvmfs/hpc.rug.nl/versions/2023.01/rocky8/x86_64/a
                          | md/zen3/software/impi/2021.7.1-intel-compilers-202
                          | 2.2.1/mpi/2021.7.1/bin/mpiicpc
 C++ compiler version     | unknown
 BLAS                     | /cvmfs/hpc.rug.nl/versions/2023.01/rocky8/x86_64/a
                          | md/zen3/software/imkl/2022.2.1/mkl/2022.2.1/lib/in
                          | tel64/libmkl_intel_lp64.so;/cvmfs/hpc.rug.nl/versi
                          | ons/2023.01/rocky8/x86_64/amd/zen3/software/imkl/2
                          | 022.2.1/mkl/2022.2.1/lib/intel64/libmkl_sequential
                          | .so;/cvmfs/hpc.rug.nl/versions/2023.01/rocky8/x86_
                          | 64/amd/zen3/software/imkl/2022.2.1/mkl/2022.2.1/li
                          | b/intel64/libmkl_core.so;/usr/lib64/libpthread.so;
                          | /usr/lib64/libm.so
 LAPACK                   | /cvmfs/hpc.rug.nl/versions/2023.01/rocky8/x86_64/a
                          | md/zen3/software/imkl/2022.2.1/mkl/2022.2.1/lib/in
                          | tel64/libmkl_lapack95_lp64.a;/cvmfs/hpc.rug.nl/ver
                          | sions/2023.01/rocky8/x86_64/amd/zen3/software/imkl
                          | /2022.2.1/mkl/2022.2.1/lib/intel64/libmkl_intel_lp
                          | 64.so
 Static linking           | OFF
 Last Git revision        | 4d6ac05be54d7f9c5fe49e0ac32a42491a6c6955
 Git branch               | master
 Configuration time       | 2023-04-05 13:35:07.780405

 * Sequential calculation.


   Content of the .dal input file
 ----------------------------------

**DALTON INPUT
.RUN PROPERTIES
**WAVE FUNCTION
.HF
**PROPERTIES
.VIBANA
**END OF DALTON INPUT


   Content of the .mol file
 ----------------------------

BASIS
6-31G
opt

Atomtypes=2 Nosymmetry
Charge=6.0 Atoms=4
C        -13.5233044372            1.2627314770           -0.0064715514
C        -10.8134171822            1.8039639145            0.0071192780
C         -9.7890209873            4.1090900511            0.0054302804
C        -11.1619398490            6.5924655491           -0.0095305849
Charge=1.0 Atoms=6
H        -12.5147148950            6.6853222405           -1.5396740711
H         -9.8462206580            8.1459323857           -0.1849135320
H        -12.2411011608            6.8401187033            1.7135904091
H        -14.0272047494           -0.7239578476           -0.0544896114
H         -9.5977953134            0.1782170212            0.0163198938
H         -7.7578401380            4.2120908617            0.0194168360
Charge=8.0 Atoms=1
O        -15.2029740312            2.8471739403            0.0331648590


       *******************************************************************
       *********** Output from DALTON general input processing ***********
       *******************************************************************

 --------------------------------------------------------------------------------
   Overall default print level:    0
   Print level for DALTON.STAT:    1

    HERMIT 1- and 2-electron integral sections will be executed
    "Old" integral transformation used (limited to max 255 basis functions)
    Wave function sections will be executed (SIRIUS module)
    Static molecular property section will be executed (ABACUS module)
 --------------------------------------------------------------------------------


   ****************************************************************************
   *************** Output of molecule and basis set information ***************
   ****************************************************************************


    The two title cards from your ".mol" input:
    --------------------------------------------------------------------------------
 1: opt
 2: 
    --------------------------------------------------------------------------------

  Atomic type no.    1
  --------------------
  Nuclear charge:   6.00000
  Number of symmetry independent centers:    4
  Number of basis sets to read;    2
  Basis set file used for this atomic type with Z =   6 :
     "/home3/hb-qchav/Dalton/basis/6-31G"

  Info about the basis set file: your basis has no documentation.
  Basis set: 6-31G                                                                           

  Atomic type no.    2
  --------------------
  Nuclear charge:   1.00000
  Number of symmetry independent centers:    6
  Number of basis sets to read;    2
  Basis set file used for this atomic type with Z =   1 :
     "/home3/hb-qchav/Dalton/basis/6-31G"

  Info about the basis set file: your basis has no documentation.
  Basis set: 6-31G                                                                           


                         SYMGRP: Point group information
                         -------------------------------

@    Point group: C1 


                                 Isotopic Masses
                                 ---------------

                           C          12.000000
                           C          12.000000
                           C          12.000000
                           C          12.000000
                           H           1.007825
                           H           1.007825
                           H           1.007825
                           H           1.007825
                           H           1.007825
                           H           1.007825

                       Total mass:    54.046950 amu
                       Natural abundance:  95.586 %

 Center-of-mass coordinates (a.u.):  -11.285621    3.529431   -0.001321
 Center-of-mass coordinates (Angs):   -5.972093    1.867695   -0.000699


  Atoms and basis sets
  --------------------

  Number of atom types :    2
  Total number of atoms:   10

  Basis set used is "6-31G" from the basis set library.

  label    atoms   charge   prim   cont     basis
  ----------------------------------------------------------------------
  C           4    6.0000    22     9      [10s4p|3s2p]                                       
  H           6    1.0000     4     2      [4s|2s]                                            
  ----------------------------------------------------------------------
  total:     10   30.0000   112    48
  ----------------------------------------------------------------------

  Threshold for neglecting AO integrals:  1.00D-12


  Cartesian Coordinates (a.u.)
  ----------------------------

  Total number of coordinates:   30
  C       :     1  x -13.5233044372    2  y   1.2627314770    3  z  -0.0064715514
  C       :     4  x -10.8134171822    5  y   1.8039639145    6  z   0.0071192780
  C       :     7  x  -9.7890209873    8  y   4.1090900511    9  z   0.0054302804
  C       :    10  x -11.1619398490   11  y   6.5924655491   12  z  -0.0095305849
  H       :    13  x -12.5147148950   14  y   6.6853222405   15  z  -1.5396740711
  H       :    16  x  -9.8462206580   17  y   8.1459323857   18  z  -0.1849135320
  H       :    19  x -12.2411011608   20  y   6.8401187033   21  z   1.7135904091
  H       :    22  x -14.0272047494   23  y  -0.7239578476   24  z  -0.0544896114
  H       :    25  x  -9.5977953134   26  y   0.1782170212   27  z   0.0163198938
  H       :    28  x  -7.7578401380   29  y   4.2120908617   30  z   0.0194168360


   Interatomic separations (in Angstrom):
   --------------------------------------

            C           C           C           C           H           H     
            ------      ------      ------      ------      ------      ------
 C     :    0.000000
 C     :    1.462350    0.000000
 C     :    2.484698    1.334849    0.000000
 C     :    3.084795    2.540684    1.501622    0.000000
 H     :    3.029393    2.855334    2.146512    1.081900    0.000000
 H     :    4.130676    3.396349    2.138793    1.081276    1.762217    0.000000
 H     :    3.162245    2.913512    2.142287    1.083854    1.729572    1.758662
 H     :    1.084898    2.163980    3.401755    4.158061    4.078128    5.189515
 H     :    2.155143    1.074226    2.082596    3.493764    3.862340    4.219726
 H     :    3.427009    2.058749    1.076261    2.198151    2.954662    2.359335

            H           H           H           H     
            ------      ------      ------      ------
 H     :    0.000000
 H     :    4.217895    0.000000
 H     :    3.897588    2.392361    0.000000
 H     :    2.892445    4.222654    2.346206    0.000000


  Max    interatomic separation is    5.1895 Angstrom (    9.8068 Bohr)
  between atoms    8 and    6, "H     " and "H     ".

  Min HX interatomic separation is    1.0742 Angstrom (    2.0300 Bohr)

  Min YX interatomic separation is    1.3348 Angstrom (    2.5225 Bohr)


  Bond distances (Angstrom):
  --------------------------

                  atom 1     atom 2       distance
                  ------     ------       --------
  bond distance:  C          C            1.462350
  bond distance:  C          C            1.334849
  bond distance:  C          C            1.501622
  bond distance:  H          C            1.081900
  bond distance:  H          C            1.081276
  bond distance:  H          C            1.083854
  bond distance:  H          C            1.084898
  bond distance:  H          C            1.074226
  bond distance:  H          C            1.076261


  Bond angles (degrees):
  ----------------------

                  atom 1     atom 2     atom 3         angle
                  ------     ------     ------         -----
  bond angle:     C          C          H            115.527
  bond angle:     C          C          C            125.254
  bond angle:     C          C          H            115.493
  bond angle:     C          C          H            119.253
  bond angle:     C          C          C            127.104
  bond angle:     C          C          H            116.862
  bond angle:     C          C          H            116.034
  bond angle:     C          C          H            111.335
  bond angle:     C          C          H            110.748
  bond angle:     C          C          H            110.873
  bond angle:     H          C          H            109.104
  bond angle:     H          C          H            105.993
  bond angle:     H          C          H            108.636




 Principal moments of inertia (u*A**2) and principal axes
 --------------------------------------------------------

   IA      26.563130          0.351979    0.936008    0.000208
   IB      89.565224          0.935988   -0.351973    0.006493
   IC     113.112156         -0.006151    0.002091    0.999979


 Rotational constants
 --------------------

               A                   B                   C

          19025.5819           5642.5807           4467.9460 MHz
            0.634625            0.188216            0.149035 cm-1


@  Nuclear repulsion energy :  103.167024302294 Hartree


                     .---------------------------------------.
                     | Starting in Integral Section (HERMIT) |
                     `---------------------------------------'



 ***************************************************************************************
 ****************** Output from **INTEGRALS input processing (HERMIT) ******************
 ***************************************************************************************


 - Using defaults, no **INTEGRALS input found

 Default print level:        1

 Calculation of one- and two-electron Hamiltonian integrals.

 Center of mass  (bohr):    -11.285621076580      3.529431410108     -0.001321329043
 Operator center (bohr):      0.000000000000      0.000000000000      0.000000000000
 Gauge origin    (bohr):      0.000000000000      0.000000000000      0.000000000000
 Dipole origin   (bohr):      0.000000000000      0.000000000000      0.000000000000

Calculation of 2-electron integrals are postponed until they are needed.


     ************************************************************************
     ************************** Output from HERINT **************************
     ************************************************************************



                      Nuclear contribution to dipole moments
                      --------------------------------------

                 au               Debye          C m (/(10**-30)

      x   -337.71097165      -858.37561526     -2863.23285445
      y    107.94722932       274.37447154       915.21472344
      z     -0.05046554        -0.12827061        -0.42786469


  Total CPU  time used in HERMIT:   0.02 seconds
  Total wall time used in HERMIT:   0.02 seconds


                        .----------------------------------.
                        | End of Integral Section (HERMIT) |
                        `----------------------------------'



                   .--------------------------------------------.
                   | Starting in Wave Function Section (SIRIUS) |
                   `--------------------------------------------'


 *** Output from Huckel module :

     Using EWMO model:          T
     Using EHT  model:          F
     Number of Huckel orbitals each symmetry:   26

 EWMO - Energy Weighted Maximum Overlap - is a Huckel type method,
        which normally is better than Extended Huckel Theory.
 Reference: Linderberg and Ohrn, Propagators in Quantum Chemistry (Wiley, 1973)

 Huckel EWMO eigenvalues for symmetry :  1
          -11.358351     -11.351498     -11.347092     -11.343996      -1.714850
           -1.385275      -1.117152      -0.849520      -0.787461      -0.767633
           -0.592356      -0.537901      -0.494705      -0.450805      -0.383995
           -0.352139      -0.220910      -0.137961      -0.132806      -0.123721
           -0.120213      -0.116674      -0.114284      -0.107045      -0.092668
           -0.083789

 **********************************************************************
 *SIRIUS* a direct, restricted step, second order MCSCF program       *
 **********************************************************************

 
     Date and time (Linux)  : Tue Mar 26 11:25:46 2024
     Host name              : node103                                 

 Title lines from ".mol" input file:
     opt
     

 Print level on unit LUPRI =   2 is   0
 Print level on unit LUW4  =   2 is   5

@    Restricted, closed shell Hartree-Fock calculation.

@    Time-dependent Hartree-Fock calculation (random phase approximation).

 Initial molecular orbitals are obtained according to
 ".MOSTART EWMO  " input option

     Wave function specification
     ============================
@    Wave function type        --- HF ---
@    Number of closed shell electrons          30
@    Number of electrons in active shells       0
@    Total charge of the molecule               0

@    Spin multiplicity and 2 M_S                1         0
@    Total number of symmetries                 1 (point group: C1 )
@    Reference state symmetry                   1 (irrep name : A  )

     Orbital specifications
     ======================
@    Abelian symmetry species          All |    1
@                                          |  A  
                                       --- |  ---
@    Occupied SCF orbitals              15 |   15
@    Secondary orbitals                 33 |   33
@    Total number of orbitals           48 |   48
@    Number of basis functions          48 |   48

     Optimization information
     ========================
@    Number of configurations                 1
@    Number of orbital rotations            495
     ------------------------------------------
@    Total number of variables              496

     Maximum number of Fock   iterations      0
     Maximum number of DIIS   iterations     60
     Maximum number of QC-SCF iterations     60
     Threshold for SCF convergence     1.00D-05


 ***********************************************
 ***** DIIS acceleration of SCF iterations *****
 ***********************************************

 C1-DIIS algorithm; max error vectors =    8

 Iter      Total energy        Error norm    Delta(E)  DIIS dim.
 -----------------------------------------------------------------------------

Calculating AOSUPINT

---> (Re)generating AOTWOINT


     ************************************************************************
     ************************** Output from HERINT **************************
     ************************************************************************


 Threshold for neglecting two-electron integrals:  1.00D-12
 HERMIT - Number of two-electron integrals written:      673560 ( 97.3% )
 HERMIT - Megabytes written:                              7.715

  Total CPU  time used in TWOINT:   0.11 seconds
  Total wall time used in TWOINT:   0.11 seconds
  Time used in TWOINT     is       0.11 seconds
  CPU  time used in MAKE_AOTWOINT is   0.11 seconds
  WALL time used in MAKE_AOTWOINT is   0.11 seconds
     (Precalculated AO two-electron integrals are transformed to P-supermatrix elements.
      Threshold for discarding integrals :  1.00D-12 )

@  1    -154.093504258        2.79222D+00   -1.54D+02    1
      Virial theorem: -V/T =      2.019565
@    MULPOP   C      -0.60; C       0.36; C       0.70; C       0.38; H      -0.08; H      -0.14; H      -0.07; H      -0.14; H      -0.21; H      -0.20; 
@
   1  Level shift: doubly occupied orbital energies shifted by -2.00D-01
 -----------------------------------------------------------------------------
@  2    -154.682532307        8.99464D-01   -5.89D-01    2
      Virial theorem: -V/T =      1.995472
@    MULPOP   C       0.10; C      -0.42; C      -0.13; C      -0.51; H       0.24; H       0.18; H       0.23; H      -0.02; H       0.13; H       0.20; 
@
   2  Level shift: doubly occupied orbital energies shifted by -1.00D-01
 -----------------------------------------------------------------------------
@  3    -154.743191370        1.85015D-01   -6.07D-02    3
      Virial theorem: -V/T =      1.999084
@    MULPOP   C      -0.08; C      -0.40; C       0.04; C      -0.52; H       0.22; H       0.16; H       0.21; H       0.05; H       0.14; H       0.18; 
@
   3  Level shift: doubly occupied orbital energies shifted by -2.50D-02
 -----------------------------------------------------------------------------
@  4    -154.749563906        7.56284D-02   -6.37D-03    4
      Virial theorem: -V/T =      1.998802
@    MULPOP   C      -0.07; C      -0.40; C      -0.03; C      -0.52; H       0.22; H       0.16; H       0.21; H       0.07; H       0.15; H       0.20; 
@
   4  Level shift: doubly occupied orbital energies shifted by -1.25D-02
 -----------------------------------------------------------------------------
@  5    -154.750414207        2.67847D-02   -8.50D-04    5
      Virial theorem: -V/T =      1.998449
@    MULPOP   C      -0.08; C      -0.41; C      -0.02; C      -0.52; H       0.22; H       0.16; H       0.21; H       0.09; H       0.16; H       0.20; 
@
 -----------------------------------------------------------------------------
@  6    -154.750652574        1.11428D-02   -2.38D-04    6
      Virial theorem: -V/T =      1.998417
@    MULPOP   C      -0.08; C      -0.40; C      -0.03; C      -0.50; H       0.21; H       0.16; H       0.21; H       0.09; H       0.16; H       0.20; 
@
 -----------------------------------------------------------------------------
@  7    -154.750674152        3.86368D-03   -2.16D-05    7
      Virial theorem: -V/T =      1.998432
@    MULPOP   C      -0.08; C      -0.40; C      -0.03; C      -0.50; H       0.21; H       0.16; H       0.21; H       0.09; H       0.16; H       0.20; 
@
 -----------------------------------------------------------------------------
@  8    -154.750677639        1.12902D-03   -3.49D-06    8
      Virial theorem: -V/T =      1.998426
@    MULPOP   C      -0.08; C      -0.40; C      -0.03; C      -0.50; H       0.21; H       0.16; H       0.21; H       0.09; H       0.16; H       0.20; 
@
 -----------------------------------------------------------------------------
@  9    -154.750677909        3.74291D-04   -2.70D-07    8
      Virial theorem: -V/T =      1.998425
@    MULPOP   C      -0.08; C      -0.40; C      -0.03; C      -0.50; H       0.21; H       0.16; H       0.21; H       0.09; H       0.16; H       0.20; 
@
 -----------------------------------------------------------------------------
@ 10    -154.750677953        2.21874D-04   -4.47D-08    8
      Virial theorem: -V/T =      1.998425
@    MULPOP   C      -0.08; C      -0.40; C      -0.03; C      -0.50; H       0.21; H       0.16; H       0.21; H       0.09; H       0.16; H       0.19; 
@
 -----------------------------------------------------------------------------
@ 11    -154.750677985        1.48858D-04   -3.16D-08    8
      Virial theorem: -V/T =      1.998425
@    MULPOP   C      -0.08; C      -0.40; C      -0.03; C      -0.50; H       0.21; H       0.16; H       0.21; H       0.09; H       0.16; H       0.19; 
@
 -----------------------------------------------------------------------------
@ 12    -154.750678011        8.37991D-05   -2.63D-08    8
      Virial theorem: -V/T =      1.998425
@    MULPOP   C      -0.08; C      -0.40; C      -0.03; C      -0.50; H       0.21; H       0.16; H       0.21; H       0.09; H       0.16; H       0.19; 
@
 -----------------------------------------------------------------------------
@ 13    -154.750678021        2.52342D-05   -1.02D-08    8
      Virial theorem: -V/T =      1.998425
@    MULPOP   C      -0.08; C      -0.40; C      -0.03; C      -0.50; H       0.21; H       0.16; H       0.21; H       0.09; H       0.16; H       0.19; 
@
 -----------------------------------------------------------------------------
@ 14    -154.750678022        8.34647D-06   -3.49D-10    8

@ *** DIIS converged in  14 iterations !
@     Converged SCF energy, gradient:   -154.750678021799    8.35D-06
    - total time used in SIRFCK :              0.00 seconds


 *** SCF orbital energy analysis ***

 Only the 20 lowest virtual orbital energies printed in each symmetry.

 Number of electrons        :   30
 Closed shell orbitals      :   15

 Sym       Hartree-Fock orbital energies

1 A     -11.28505208   -11.23729791   -11.23000554   -11.22476351    -1.10075491
         -0.97831507    -0.86977215    -0.71427032    -0.66531520    -0.57798981
         -0.57285454    -0.54116351    -0.50572962    -0.38843901    -0.31349209
          0.05979787     0.23490211     0.24430829     0.26979044     0.30239806
          0.33804899     0.33997233     0.35034874     0.39893371     0.52620432
          0.54894856     0.72000878     0.73512817     0.75919390     0.81976860
          0.82898191     0.86353642     0.87744050     0.90187974     0.93912525

    E(LUMO) :     0.05979787 au (symmetry 1)
  - E(HOMO) :    -0.31349209 au (symmetry 1)
  ------------------------------------------
    gap     :     0.37328996 au

 --- Writing SIRIFC interface file

--------------------------------------------------------------------------------


     .--------------------------------------------------.
     | HF-SCF KT IPs [a.u. & eV] from Koopmans' theorem |
     `--------------------------------------------------'


     HF-SCF KT symmetry 1 ( A  ) in point group C1  -- 15 principal poles with pole strength 1

   ============  ============  ============  ============  ============
      11.285052     11.237298     11.230006     11.224764      1.100755
     307.081888    305.782431    305.583995    305.441353     29.953065
   ============  ============  ============  ============  ============

   ============  ============  ============  ============  ============
       0.978315      0.869772      0.714270      0.665315      0.577990
      26.621307     23.667704     19.436284     18.104147     15.727903
   ============  ============  ============  ============  ============

   ============  ============  ============  ============  ============
       0.572855      0.541164      0.505730      0.388439      0.313492
      15.588165     14.725808     13.761603     10.569963      8.530554
   ============  ============  ============  ============  ============

@ Summary of HF-SCF KT ionization potentials [eV]:

@ Symmetry 1 (A  ) :   307.082     305.782     305.584     305.441      29.953
@                       26.621      23.668      19.436      18.104      15.728
@                       15.588      14.726      13.762      10.570       8.531

  === End of HF-SCF KT output ===
--------------------------------------------------------------------------------


 CPU and wall time for SCF :       0.176       0.756


                       .-----------------------------------.
                       | --- Final results from SIRIUS --- |
                       `-----------------------------------'


@    Spin multiplicity:           1
@    Spatial symmetry:            1 ( irrep  A   in C1  )
@    Total charge of molecule:    0

@    Final HF energy:            -154.750678021799                 
@    Nuclear repulsion:           103.167024302294
@    Electronic energy:          -257.917702324092

@    Final gradient norm:           0.000008346468

 
     Date and time (Linux)  : Tue Mar 26 11:25:47 2024
     Host name              : node103                                 

File label for MO orbitals:  26Mar24   FOCKDIIS

 (Only coefficients > 0.0100 are printed.)

 Molecular orbitals for symmetry species 1  (A  )
 ------------------------------------------------

    Orbital         1        2        3        4        5        6        7
   1 C   :1s     0.0001  -0.9959   0.0007   0.0329  -0.0522   0.0849   0.1318
   2 C   :1s    -0.0001  -0.0232  -0.0001   0.0014   0.1066  -0.1740  -0.2699
   3 C   :1s    -0.0009   0.0140   0.0003  -0.0055   0.0589  -0.1187  -0.2338
   4 C   :2px   -0.0002  -0.0021  -0.0000   0.0002   0.0654  -0.0868  -0.0720
   5 C   :2py   -0.0001   0.0021  -0.0001  -0.0001   0.0049   0.0254   0.0773
   7 C   :2px   -0.0002   0.0034   0.0003  -0.0025   0.0022  -0.0110  -0.0174
   8 C   :2py   -0.0001  -0.0032   0.0003  -0.0006  -0.0042   0.0085   0.0219
  10 C   :1s     0.0131  -0.0327  -0.0027  -0.9955  -0.1308   0.1123   0.0009
  11 C   :1s    -0.0006  -0.0002  -0.0002  -0.0252   0.2558  -0.2203  -0.0045
  12 C   :1s     0.0064  -0.0030   0.0002   0.0181   0.1797  -0.1746   0.0050
  13 C   :2px   -0.0000  -0.0003   0.0000  -0.0000   0.0136   0.0383   0.1918
  14 C   :2py   -0.0002  -0.0002  -0.0002  -0.0004   0.0832   0.0246   0.1446
  16 C   :2px   -0.0002   0.0028   0.0005  -0.0015  -0.0032   0.0137   0.0448
  17 C   :2py    0.0031   0.0033   0.0005   0.0020  -0.0040   0.0194   0.0409
  19 C   :1s     0.9961   0.0006  -0.0060   0.0137  -0.1501  -0.0205  -0.1034
  20 C   :1s     0.0248   0.0003  -0.0006   0.0013   0.3054   0.0446   0.2142
  21 C   :1s    -0.0178  -0.0026   0.0043  -0.0070   0.1978   0.0096   0.1862
  22 C   :2px    0.0000  -0.0001   0.0001  -0.0002  -0.0498  -0.0016   0.0743
  23 C   :2py   -0.0000  -0.0001  -0.0002  -0.0003  -0.0467   0.1705  -0.1128
  25 C   :2px    0.0021   0.0010  -0.0012   0.0024   0.0056   0.0019   0.0331
  26 C   :2py    0.0001   0.0012   0.0028   0.0019  -0.0027   0.0297   0.0004
  28 C   :1s     0.0058   0.0007   0.9962  -0.0027  -0.0925  -0.1498   0.0793
  29 C   :1s    -0.0003   0.0000   0.0261  -0.0000   0.1748   0.2847  -0.1495
  30 C   :1s     0.0041   0.0002  -0.0192   0.0013   0.1586   0.2970  -0.1862
  31 C   :2px   -0.0001  -0.0000   0.0001   0.0000   0.0241   0.0131   0.0448
  32 C   :2py    0.0001  -0.0001  -0.0002  -0.0002  -0.0539   0.0007  -0.0647
  35 C   :2py   -0.0022  -0.0000   0.0011  -0.0003  -0.0084   0.0029  -0.0139
  37 H   :1s    -0.0002   0.0000   0.0001  -0.0000   0.0480   0.0959  -0.0743
  38 H   :1s     0.0004  -0.0001   0.0032  -0.0001   0.0021   0.0171  -0.0270
  39 H   :1s    -0.0001   0.0000   0.0000  -0.0001   0.0458   0.1048  -0.0690
  40 H   :1s    -0.0001  -0.0001   0.0032  -0.0002   0.0034   0.0207  -0.0213
  41 H   :1s    -0.0002   0.0000   0.0001  -0.0000   0.0480   0.0974  -0.0734
  42 H   :1s     0.0006  -0.0001   0.0033  -0.0001   0.0017   0.0183  -0.0264
  43 H   :1s     0.0000   0.0001  -0.0000   0.0001   0.0254  -0.0618  -0.1328
  44 H   :1s     0.0002  -0.0040   0.0003   0.0002   0.0005  -0.0174  -0.0531
  45 H   :1s    -0.0000   0.0003   0.0000   0.0003   0.0604  -0.0768  -0.0013
  46 H   :1s     0.0005   0.0005   0.0003  -0.0021   0.0039  -0.0190   0.0031
  47 H   :1s    -0.0002  -0.0000  -0.0001   0.0000   0.0790   0.0199   0.1176
  48 H   :1s     0.0023  -0.0005   0.0001  -0.0004   0.0090   0.0071   0.0406

    Orbital         8        9       10       11       12       13       14
   1 C   :1s     0.0838  -0.0296  -0.0011   0.0199  -0.0275   0.0273   0.0018
   2 C   :1s    -0.1665   0.0639   0.0018  -0.0316   0.0574  -0.0653  -0.0033
   3 C   :1s    -0.2028   0.0573   0.0067  -0.1009   0.0568  -0.0160  -0.0076
   4 C   :2px    0.0735   0.0052  -0.0128   0.2261  -0.0269  -0.1877   0.0102
   5 C   :2py    0.1308   0.0857  -0.0123   0.1788   0.0468  -0.2071  -0.0035
   6 C   :2pz    0.0031   0.0007   0.0184   0.0061   0.0006  -0.0052  -0.1322
   7 C   :2px    0.0032  -0.0222  -0.0020   0.0488  -0.0311  -0.0142   0.0071
   8 C   :2py    0.0375   0.0173  -0.0030   0.0528   0.0092  -0.0642  -0.0028
   9 C   :2pz    0.0009   0.0000   0.0086   0.0019   0.0001  -0.0017  -0.0825
  10 C   :1s    -0.0880   0.0267   0.0021  -0.0321  -0.0092  -0.0011  -0.0006
  11 C   :1s     0.1753  -0.0515  -0.0030   0.0618   0.0188   0.0117   0.0016
  12 C   :1s     0.1952  -0.0617  -0.0181   0.1740   0.0348  -0.0777  -0.0030
  13 C   :2px    0.0826  -0.1657   0.0123  -0.2142  -0.0332   0.2458  -0.0038
  14 C   :2py    0.0097   0.2826   0.0045  -0.1335   0.2660   0.0354   0.0004
  15 C   :2pz    0.0009  -0.0015   0.0743   0.0049   0.0010  -0.0013  -0.3919
  16 C   :2px    0.0244  -0.0839   0.0068  -0.0972  -0.0573   0.1919  -0.0012
  17 C   :2py   -0.0258   0.1088  -0.0046  -0.0461   0.1460  -0.0294  -0.0027
  18 C   :2pz    0.0002  -0.0010   0.0505   0.0039   0.0012  -0.0004  -0.3314
  19 C   :1s     0.0671  -0.0379  -0.0008   0.0082   0.0075  -0.0168  -0.0001
  20 C   :1s    -0.1382   0.0825   0.0005  -0.0174  -0.0073   0.0402  -0.0005
  21 C   :1s    -0.1696   0.0804   0.0098  -0.0267  -0.0880   0.0519   0.0044
  22 C   :2px   -0.1996  -0.2664   0.0028  -0.0626   0.0152  -0.2998   0.0037
  23 C   :2py   -0.1935  -0.0073  -0.0102   0.2433  -0.2794   0.0263  -0.0023
  24 C   :2pz   -0.0002  -0.0015   0.1333   0.0071   0.0040  -0.0038  -0.2988
  25 C   :2px   -0.0884  -0.0971  -0.0030  -0.0272   0.0469  -0.2101  -0.0001
  26 C   :2py   -0.0768   0.0096  -0.0091   0.1115  -0.1117   0.0361  -0.0044
  27 C   :2pz    0.0002  -0.0001   0.0637   0.0029   0.0013  -0.0027  -0.2416
  28 C   :1s    -0.0320   0.0168   0.0005   0.0018   0.0079  -0.0127   0.0004
  29 C   :1s     0.0588  -0.0276  -0.0012  -0.0010  -0.0227   0.0313  -0.0009
  30 C   :1s     0.1024  -0.0612  -0.0006  -0.0264   0.0042  -0.0007  -0.0016
  31 C   :2px   -0.1555  -0.0596  -0.0202   0.2945   0.1502   0.2343  -0.0009
  32 C   :2py    0.0853  -0.2008  -0.0011  -0.0550   0.3411  -0.0908   0.0025
  33 C   :2pz   -0.0003  -0.0002   0.4257   0.0268   0.0065   0.0011   0.1277
  34 C   :2px   -0.0452  -0.0324  -0.0062   0.1398   0.0845   0.1351   0.0039
  35 C   :2py    0.0343  -0.0747   0.0009  -0.0220   0.1465  -0.0129   0.0040
  36 C   :2pz   -0.0016  -0.0011   0.2326   0.0162   0.0064   0.0009   0.1105
  37 H   :1s     0.0855   0.0030  -0.2009  -0.1421  -0.0711  -0.1012  -0.0836
  38 H   :1s     0.0440   0.0042  -0.1380  -0.1006  -0.0482  -0.0862  -0.0655
  39 H   :1s     0.0084  -0.1298  -0.0350   0.0976   0.2441   0.0768  -0.0099
  40 H   :1s    -0.0083  -0.0865  -0.0281   0.0791   0.2101   0.0536  -0.0122
  41 H   :1s     0.0778  -0.0108   0.2425  -0.0919  -0.0327  -0.0816   0.0954
  42 H   :1s     0.0417  -0.0041   0.1714  -0.0670  -0.0213  -0.0719   0.0802
  43 H   :1s    -0.1627  -0.0170   0.0116  -0.1832   0.0077   0.1525   0.0002
  44 H   :1s    -0.0996  -0.0255   0.0097  -0.1542  -0.0018   0.1598  -0.0003
  45 H   :1s     0.1083  -0.2120   0.0004   0.0239  -0.1504   0.0922  -0.0032
  46 H   :1s     0.0467  -0.1310  -0.0013   0.0110  -0.1049   0.0536  -0.0046
  47 H   :1s    -0.1867  -0.1153   0.0026  -0.0423  -0.0108  -0.2065   0.0014
  48 H   :1s    -0.0964  -0.0820   0.0020  -0.0270  -0.0184  -0.1557   0.0019

    Orbital        15       16       17       18       19       20       21
   1 C   :1s    -0.0835  -0.0004   0.0445  -0.0009   0.0127  -0.0537  -0.0371
   2 C   :1s     0.1450   0.0006  -0.0720   0.0003  -0.0463   0.0316   0.0280
   3 C   :1s     0.4040   0.0006  -0.4713   0.0110  -0.1046   1.2949   0.8325
   4 C   :2px   -0.3486  -0.0002   0.0138   0.0003  -0.0081  -0.0498   0.0064
   5 C   :2py    0.3566  -0.0075   0.0500   0.0032  -0.0380  -0.2123  -0.0959
   6 C   :2pz    0.0039   0.3304  -0.0070  -0.2858   0.0235  -0.0081   0.0088
   7 C   :2px   -0.3108  -0.0008   0.1056  -0.0006  -0.0500   0.0145   0.1553
   8 C   :2py    0.2588  -0.0106   0.2244   0.0092   0.1087  -0.5981  -0.4243
   9 C   :2pz    0.0029   0.4477  -0.0085  -0.6426   0.0553  -0.0205   0.0767
  10 C   :1s     0.0169   0.0001   0.0311  -0.0016  -0.0208  -0.0366   0.0178
  11 C   :1s    -0.0650  -0.0005  -0.0315  -0.0014  -0.0103   0.0368   0.0029
  12 C   :1s     0.1149   0.0020  -0.5421   0.0332   0.4914   0.8059  -0.7415
  13 C   :2px    0.1553  -0.0007  -0.0978   0.0021   0.0494   0.1159  -0.0179
  14 C   :2py   -0.0602   0.0005   0.0982  -0.0065  -0.0596  -0.1129   0.0945
  15 C   :2pz   -0.0075   0.1003   0.0084   0.3349  -0.0263  -0.0004  -0.0613
  16 C   :2px    0.0757  -0.0037  -0.1403   0.0049   0.1293   0.8785   0.1656
  17 C   :2py    0.1033   0.0001   0.2729  -0.0147  -0.3065  -0.2615   0.3854
  18 C   :2pz   -0.0067   0.2061   0.0222   0.7480  -0.0632   0.0124  -0.1704
  19 C   :1s     0.0176  -0.0008   0.0495  -0.0031  -0.0355   0.0441   0.0478
  20 C   :1s    -0.0338   0.0014  -0.0667  -0.0036  -0.0307  -0.0327  -0.0696
  21 C   :1s    -0.2391   0.0090  -0.8221   0.0727   0.8795  -1.0146  -1.0967
  22 C   :2px    0.0151   0.0018  -0.1966   0.0136   0.0743  -0.0952  -0.1110
  23 C   :2py    0.0658  -0.0029  -0.0091   0.0031   0.0381  -0.0525  -0.0481
  24 C   :2pz   -0.0090  -0.3361  -0.0088  -0.2069   0.0173   0.0014   0.0503
  25 C   :2px    0.0592   0.0107  -0.6645   0.0363   0.0852  -0.5574  -0.6342
  26 C   :2py    0.0778  -0.0014   0.0613   0.0110   0.3574   0.2450  -0.3852
  27 C   :2pz   -0.0102  -0.4966  -0.0282  -0.4816   0.0570  -0.0097   0.2702
  28 C   :1s    -0.0005  -0.0003   0.0618   0.0070   0.1306   0.0033  -0.0151
  29 C   :1s    -0.0022  -0.0000  -0.0369  -0.0033  -0.0701   0.0394   0.0057
  30 C   :1s     0.0078   0.0050  -1.1351  -0.1330  -2.5718  -0.4687   0.2788
  31 C   :2px    0.0450  -0.0020  -0.0696   0.0101   0.1057  -0.0944   0.2062
  32 C   :2py   -0.0262  -0.0001  -0.0916  -0.0001  -0.0551  -0.1700   0.0691
  33 C   :2pz    0.0050   0.0105   0.0036  -0.0513  -0.0097   0.0034  -0.1555
  34 C   :2px    0.0140  -0.0158  -0.1568   0.0357   0.4445  -0.3480   1.2500
  35 C   :2py   -0.0771  -0.0055  -0.3266  -0.0076  -0.0774  -0.4685   0.3285
  36 C   :2pz    0.0104  -0.0491   0.0126  -0.3556  -0.0474   0.0142  -0.6957
  37 H   :1s    -0.0227  -0.0583  -0.0177  -0.0717   0.0257   0.0073   0.0165
  38 H   :1s     0.0082  -0.2074   0.1877  -0.3746   1.3183  -0.1981   0.1548
  39 H   :1s     0.0100  -0.0071   0.0387  -0.0098  -0.0345   0.0095  -0.0335
  40 H   :1s     0.0345  -0.0098   1.0136  -0.0368   0.6126   0.9657  -1.4821
  41 H   :1s    -0.0151   0.0649  -0.0112   0.0821   0.0106   0.0102   0.0326
  42 H   :1s     0.0057   0.2123   0.2634   0.5923   1.3058  -0.1096   1.3739
  43 H   :1s    -0.1116   0.0000   0.0397   0.0008   0.0047   0.0015   0.0107
  44 H   :1s    -0.1411  -0.0008   0.6367  -0.0139   0.0883  -1.3571  -0.7711
  45 H   :1s     0.1216  -0.0023   0.0292  -0.0001  -0.0024  -0.0097  -0.0211
  46 H   :1s     0.2038  -0.0043   0.8030  -0.0403  -0.5406  -1.2394   0.5220
  47 H   :1s    -0.0149  -0.0006   0.0371  -0.0044  -0.0497  -0.0079  -0.0368
  48 H   :1s    -0.0157  -0.0081   1.3150  -0.0827  -0.6554   0.9638   1.0968

    Orbital        22       23       24       25
   1 C   :1s    -0.0024  -0.0744  -0.0374   0.0675
   2 C   :1s     0.0124   0.0660   0.0299   0.0109
   3 C   :1s    -0.1184   1.2662   0.5593  -1.9109
   4 C   :2px   -0.0023   0.0159   0.1805  -0.0791
   5 C   :2py    0.0189  -0.1704   0.0283  -0.1063
   7 C   :2px   -0.0326   0.1949   0.7189  -1.8169
   8 C   :2py    0.0284  -0.7769   0.2632  -1.0518
   9 C   :2pz    0.1499  -0.0524   0.0078  -0.0159
  10 C   :1s     0.0174   0.0940   0.0485  -0.1019
  11 C   :1s    -0.0317  -0.0870  -0.0533   0.0935
  12 C   :1s    -0.1238  -1.7232  -1.3184   3.2606
  13 C   :2px   -0.0133  -0.0635   0.1021  -0.2195
  14 C   :2py   -0.0269   0.1061   0.0329   0.1365
  15 C   :2pz   -0.1285   0.0290   0.0009  -0.0027
  16 C   :2px   -0.2143  -0.3757   0.1796  -2.0459
  17 C   :2py   -0.0058   0.7052   0.3692   1.6725
  18 C   :2pz   -0.3363   0.0829   0.0023  -0.0125
  19 C   :1s    -0.0387  -0.0710   0.0579   0.0689
  20 C   :1s     0.0487   0.1041  -0.0659   0.0032
  21 C   :1s     0.7703   1.0626  -1.3534  -2.3568
  22 C   :2px    0.0517  -0.0144   0.2263   0.1184
  23 C   :2py    0.0243   0.0175  -0.2080  -0.1167
  24 C   :2pz    0.1095  -0.0237   0.0013   0.0027
  25 C   :2px    0.4082   0.2703   1.2071   2.1344
  26 C   :2py    0.1130   0.0150  -1.4893   0.4060
  27 C   :2pz    0.5273  -0.1309   0.0023   0.0084
  28 C   :1s     0.0120   0.0422  -0.0582  -0.0255
  29 C   :1s    -0.0098  -0.0338  -0.0085  -0.0351
  30 C   :1s    -0.1453  -0.6120   1.4862   0.9011
  31 C   :2px   -0.1291  -0.0652   0.0767  -0.1123
  32 C   :2py   -0.0377   0.0028  -0.1735   0.0107
  33 C   :2pz   -0.2915   0.0796   0.0108   0.0013
  34 C   :2px   -0.7504  -0.3527   0.6806   0.2193
  35 C   :2py   -0.1995   0.1584  -1.7633  -1.2516
  36 C   :2pz   -1.3237   0.3420   0.0431   0.0075
  37 H   :1s    -0.0434  -0.0100   0.0340   0.1110
  38 H   :1s    -1.8060   0.3349   0.1478  -0.0327
  39 H   :1s     0.0221  -0.0037   0.0762  -0.0230
  40 H   :1s     0.7199   0.4978   0.5209   0.3746
  41 H   :1s     0.0066  -0.0181   0.0347   0.0965
  42 H   :1s     1.0844  -0.3492   0.1092   0.0010
  43 H   :1s    -0.0115  -0.0015   0.0234  -0.0107
  44 H   :1s     0.0441  -1.4528   0.2746  -0.6856
  45 H   :1s     0.0112   0.0049  -0.0618  -0.0158
  46 H   :1s     0.2006   1.6645   0.3519   1.3623
  47 H   :1s     0.0183  -0.0105  -0.0236   0.0351
  48 H   :1s    -0.7144  -0.7542  -0.8639  -1.0345

  Total CPU  time used in SIRIUS :   0.19 seconds
  Total wall time used in SIRIUS :   0.81 seconds

 
     Date and time (Linux)  : Tue Mar 26 11:25:47 2024
     Host name              : node103                                 


                     .---------------------------------------.
                     | End of Wave Function Section (SIRIUS) |
                     `---------------------------------------'



        *****************************************************************
        ******** Output from **PROPE input processing for ABACUS ********
        *****************************************************************



 The following molecular properties will be calculated in this run:
 ------------------------------------------------------------------

 Default print level:        0

      The molecular gradient
      The molecular Hessian
      Vibrational analysis
      Dipole moment gradient
      Natural orbital connection is used
      for perturbation dependent basis sets.

 Center of mass dipole origin  :  -11.285621    3.529431   -0.001321

 Center of mass gauge origin   :  -11.285621    3.529431   -0.001321


                 .------------------------------------------------.
                 | Starting in Static Property Section (ABACUS) - |
                 `------------------------------------------------'


 
     Date and time (Linux)  : Tue Mar 26 11:25:47 2024
     Host name              : node103                                 
  Total CPU  time used in TWOINT:   0.89 seconds
  Total wall time used in TWOINT:   0.90 seconds


   ***************************************************************************
   ************************ FINAL RESULTS from ABACUS ************************
   ***************************************************************************


 
     Date and time (Linux)  : Tue Mar 26 11:25:48 2024
     Host name              : node103                                 


                             Molecular geometry (au)
                             -----------------------

 C        -13.5233044372            1.2627314770           -0.0064715514
 C        -10.8134171822            1.8039639145            0.0071192780
 C         -9.7890209873            4.1090900511            0.0054302804
 C        -11.1619398490            6.5924655491           -0.0095305849
 H        -12.5147148950            6.6853222405           -1.5396740711
 H         -9.8462206580            8.1459323857           -0.1849135320
 H        -12.2411011608            6.8401187033            1.7135904091
 H        -14.0272047494           -0.7239578476           -0.0544896114
 H         -9.5977953134            0.1782170212            0.0163198938
 H         -7.7578401380            4.2120908617            0.0194168360





                        Molecular wave function and energy
                        ----------------------------------

     Spatial symmetry   1 ( A   )
     Spin multiplicity  1
     2 * M_S            0
     State number       1
     Total charge       0

     Total energy       -154.7506780218 au (Hartrees)
                         -4210.98015640 eV
                           -406297.8425 kJ/mol
                            -97107.5149 kcal/mol


                   Scalar Breit-Pauli relativistic corrections
                   -------------------------------------------

     Darwin correction:                          0.2380510936 au
     Mass-velocity correction:                  -0.2966360061 au

     Total relativistic correction:             -0.0585849125 au ( 0.0379%)
     Non-relativistic + relativistic energy:  -154.8092629343 au



      (Note that these corrections are NOT included in the results below.)


                             Molecular gradient (au)
                             -----------------------

 C          0.0029623313           -0.0351193813            0.0006608776
 C          0.0188566252            0.0400244131            0.0003337883
 C          0.0023109597           -0.0099458764           -0.0002798292
 C          0.0016815390            0.0012251116           -0.0000426241
 H         -0.0007599991            0.0007844033            0.0003566830
 H          0.0007449930           -0.0005371702            0.0000724350
 H         -0.0011980050            0.0004992998           -0.0004870930
 H         -0.0101004861            0.0071657775           -0.0004883903
 H         -0.0136591236           -0.0032815308           -0.0000652489
 H         -0.0008388344           -0.0008150465           -0.0000605983





                              Molecular Hessian (au)
                              ----------------------

           C    x      C    y      C    z      C    x      C    y      C    z

 C    x    0.373898
 C    y    0.098281    0.440818
 C    z    0.003820    0.010037    0.010449

 C    x   -0.266871   -0.043343   -0.002372    0.648757
 C    y    0.031387   -0.090541   -0.003026    0.050267    0.909648
 C    z   -0.001158   -0.001622   -0.031054    0.002947    0.000499    0.130667

 C    x   -0.013320   -0.038020   -0.000963   -0.213737   -0.184864    0.000542
 C    y   -0.035218   -0.010841    0.001358   -0.137244   -0.519790    0.000487
 C    z   -0.000823   -0.000182   -0.005543    0.000883    0.001517   -0.073459

 C    x   -0.004782   -0.001238    0.000906    0.025303   -0.003102   -0.000864
 C    y    0.001140   -0.001633    0.000059    0.019559   -0.027708   -0.000648
 C    z    0.001865    0.000405    0.000282   -0.002265   -0.001483    0.004127

 H    x    0.000748   -0.000450   -0.002037   -0.000125   -0.002239    0.001039
 H    y    0.002855    0.000102   -0.004010   -0.003201   -0.003153    0.000379
 H    z   -0.001629   -0.001558   -0.000691    0.001007    0.001277    0.001689

 H    x   -0.000634   -0.000998    0.000248   -0.002430    0.002397    0.000205
 H    y    0.000740    0.000859   -0.000005    0.004963   -0.003504    0.000122
 H    z   -0.000394   -0.000224    0.001058    0.000325    0.000389    0.000978

 H    x    0.000830   -0.000063    0.001505   -0.000239   -0.002156   -0.000476
 H    y    0.002988    0.000216    0.003054   -0.002837   -0.003181    0.000173
 H    z    0.000734    0.001152   -0.000868    0.000085   -0.000211    0.001812

 H    x   -0.050645   -0.040455   -0.001369   -0.009294   -0.043024   -0.000623
 H    y   -0.092889   -0.343202   -0.007805    0.014368   -0.006205   -0.000057
 H    z   -0.002410   -0.008647    0.002466    0.000722    0.001264   -0.003384

 H    x   -0.039127    0.029269    0.000287   -0.169257    0.145831   -0.001454
 H    y   -0.008380    0.008846    0.000312    0.136319   -0.256054    0.000699
 H    z   -0.000143    0.000411    0.014025   -0.001165    0.000383   -0.053534

 H    x   -0.000098   -0.002986   -0.000025   -0.012113    0.005503   -0.000158
 H    y   -0.000902   -0.004622    0.000030   -0.038852    0.000487   -0.000033
 H    z    0.000141    0.000228    0.009881   -0.000168   -0.000608    0.022155


           C    x      C    y      C    z      C    x      C    y      C    z

 C    x    0.749874
 C    y    0.133525    0.876773
 C    z    0.002899   -0.002265    0.218814

 C    x   -0.142480    0.044573   -0.000513    0.627105
 C    y    0.058389   -0.216376    0.001549    0.049715    0.585417
 C    z   -0.001713    0.004182   -0.094159    0.004067   -0.003753    0.603310

 H    x   -0.014550    0.004219   -0.012737   -0.179094    0.004977   -0.146792
 H    y    0.025485   -0.000137    0.028688    0.005083   -0.059209    0.009433
 H    z    0.002770   -0.003171    0.002276   -0.145892    0.010405   -0.218102

 H    x    0.013165    0.023842   -0.002407   -0.183812   -0.143744    0.015583
 H    y   -0.025911   -0.028299    0.003069   -0.136285   -0.220235    0.018582
 H    z    0.000335   -0.001108   -0.000859    0.014888    0.019006   -0.063819

 H    x   -0.011815    0.005556    0.014924   -0.130425    0.015193    0.129730
 H    y    0.019815   -0.004013   -0.032023    0.016069   -0.061160   -0.028637
 H    z   -0.002011    0.001415    0.003016    0.127537   -0.027491   -0.256972

 H    x   -0.007518    0.001097   -0.000156    0.000042    0.000509   -0.000111
 H    y   -0.002784    0.001073   -0.000206    0.000002    0.000649    0.000175
 H    z    0.000273   -0.000902    0.007901   -0.000588    0.000091   -0.004206

 H    x    0.010214   -0.021443    0.000067   -0.000959   -0.001774   -0.000110
 H    y    0.025758   -0.027981    0.000109   -0.004901   -0.001353    0.000059
 H    z   -0.000065    0.000204    0.006772   -0.000052   -0.000015    0.013816

 H    x   -0.369834   -0.018909   -0.002137   -0.010899   -0.003965   -0.000255
 H    y   -0.011393   -0.070410   -0.000255    0.030083    0.001607    0.001037
 H    z   -0.002065   -0.000198   -0.064760    0.000511    0.000799    0.015714


           H    x      H    y      H    z      H    x      H    y      H    z

 H    x    0.195520
 H    y   -0.010004    0.061338
 H    z    0.160997   -0.006791    0.237492

 H    x   -0.015008   -0.018587    0.004605    0.198618
 H    y    0.001612    0.001960   -0.000298    0.151913    0.244741
 H    z   -0.019231   -0.023619    0.004684   -0.017948   -0.020809    0.059063

 H    x    0.013103   -0.002933   -0.023084   -0.012361    0.003343    0.022072
 H    y   -0.000731    0.001819    0.000768   -0.015051    0.004280    0.026362
 H    z    0.016728   -0.003092   -0.026558   -0.000206   -0.000294   -0.001087

 H    x    0.000060   -0.000239    0.000399    0.000349   -0.000035    0.000037
 H    y   -0.000006    0.000381   -0.000389   -0.000335   -0.000200   -0.000018
 H    z    0.001086    0.002804    0.000721   -0.000176    0.000077   -0.000448

 H    x   -0.000038   -0.000128    0.000191    0.000163   -0.000466    0.000009
 H    y    0.000075    0.000179    0.000173    0.000738   -0.001485   -0.000008
 H    z    0.000662   -0.002399   -0.000378    0.000234   -0.000257    0.000326

 H    x   -0.000616    0.001668    0.000635    0.001951    0.000129   -0.000092
 H    y    0.002546   -0.003281   -0.000417   -0.000174    0.001884    0.000029
 H    z    0.000285   -0.001392   -0.001136   -0.000139   -0.000189    0.000103


           H    x      H    y      H    z      H    x      H    y      H    z

 H    x    0.141742
 H    y   -0.021219    0.064011
 H    z   -0.141973    0.028517    0.281803

 H    x   -0.000050   -0.000190   -0.000306    0.063523
 H    y    0.000140    0.000379    0.000239    0.083999    0.345030
 H    z   -0.000611   -0.002311    0.000903    0.002031    0.007857    0.000862

 H    x   -0.000024   -0.000168   -0.000162    0.004222   -0.002040   -0.000284
 H    y    0.000088    0.000005   -0.000191   -0.000041    0.002652   -0.000176
 H    z   -0.000947    0.002629   -0.000509    0.000048    0.000101   -0.002553

 H    x   -0.000763    0.001324   -0.000425   -0.000698   -0.000457   -0.000041
 H    y    0.002050   -0.002357   -0.000042   -0.001623   -0.000558   -0.000056
 H    z   -0.001138    0.001469   -0.001542    0.000049    0.000105   -0.002267


           H    x      H    y      H    z      H    x      H    y      H    z

 H    x    0.192843
 H    y   -0.149086    0.274494
 H    z    0.001350   -0.001019    0.031339

 H    x    0.001969   -0.000567    0.000080    0.391097
 H    y    0.000005    0.000701   -0.000037    0.018257    0.076549
 H    z    0.000106    0.000042   -0.009306    0.002418   -0.000256    0.031159





                                  Dipole moment
                                  -------------

                 au               Debye          C m (/(10**-30)
              0.993133           2.524291           8.420128


                             Dipole moment components
                             ------------------------

                 au               Debye          C m (/(10**-30)

      x      0.96762119         2.45944759         8.20383409
      y      0.22363727         0.56842920         1.89607571
      z     -0.00278846        -0.00708756        -0.02364155


   Units:   1 a.u. =   2.54175 Debye 
            1 a.u. =   8.47835 (10**-30) C m (SI)




                           Dipole moment gradient (au)
                           ---------------------------

                       Ex             Ey             Ez

        C    x     0.38825522     0.70703553     0.00630015
        C    y     0.25479677     0.32265811     0.02494119
        C    z    -0.00266890     0.00421807    -0.60820887

        C    x    -0.73996709    -1.04724024    -0.00513414
        C    y    -0.57935802    -0.67091575    -0.02343636
        C    z     0.00129232    -0.00250137    -0.11734980

        C    x     0.35175330    -0.00289226    -0.00783493
        C    y     0.37985278     0.83153426     0.01819162
        C    z     0.01672055     0.01995962    -0.01269620

        C    x     0.04377319     0.28683002     0.00252768
        C    y     0.10397571     0.01109068    -0.00982481
        C    z    -0.02272961    -0.04609998     0.09706521

        H    x     0.03778575     0.00841802    -0.08727643
        H    y    -0.01879910     0.01836274    -0.03772065
        H    z    -0.08101465     0.02535340     0.00056494

        H    x    -0.03954715    -0.14253521     0.01708299
        H    y    -0.08166946    -0.10077142     0.01255607
        H    z     0.01422463     0.02616343     0.08831087

        H    x     0.06649398     0.01568807     0.07581932
        H    y    -0.01235911     0.00679881     0.02254414
        H    z     0.07952662    -0.02075295    -0.03600039

        H    x     0.16780309     0.06828189     0.00017567
        H    y    -0.18648561    -0.33469459    -0.01242779
        H    z     0.00402810     0.00147891     0.31919700

        H    x    -0.16275396     0.09879969     0.00076121
        H    y     0.12937915    -0.10834965     0.00385081
        H    z    -0.00917098    -0.00834559     0.16578814

        H    x    -0.11361374     0.00762161    -0.00241736
        H    y     0.01063105     0.02424084     0.00131880
        H    z    -0.00021365     0.00050778     0.10330654





                            +-------------------------+
                            ! APT Population Analysis !
                            +-------------------------+


      [ Reference : J. Cioslowski, J.Am.Chem.Soc. 111 (1989) 8333 ]

                            C         0.034235
                            C        -0.509411
                            C         0.390197
                            C         0.050643
                            H         0.018904
                            H        -0.017336
                            H         0.012431
                            H         0.050769
                            H        -0.035105
                            H         0.004645



   Interatomic separations (in Angstrom):
   --------------------------------------

            C           C           C           C           H           H     
            ------      ------      ------      ------      ------      ------
 C     :    0.000000
 C     :    1.462350    0.000000
 C     :    2.484698    1.334849    0.000000
 C     :    3.084795    2.540684    1.501622    0.000000
 H     :    3.029393    2.855334    2.146512    1.081900    0.000000
 H     :    4.130676    3.396349    2.138793    1.081276    1.762217    0.000000
 H     :    3.162245    2.913512    2.142287    1.083854    1.729572    1.758662
 H     :    1.084898    2.163980    3.401755    4.158061    4.078128    5.189515
 H     :    2.155143    1.074226    2.082596    3.493764    3.862340    4.219726
 H     :    3.427009    2.058749    1.076261    2.198151    2.954662    2.359335

            H           H           H           H     
            ------      ------      ------      ------
 H     :    0.000000
 H     :    4.217895    0.000000
 H     :    3.897588    2.392361    0.000000
 H     :    2.892445    4.222654    2.346206    0.000000


  Max    interatomic separation is    5.1895 Angstrom (    9.8068 Bohr)
  between atoms    8 and    6, "H     " and "H     ".

  Min HX interatomic separation is    1.0742 Angstrom (    2.0300 Bohr)

  Min YX interatomic separation is    1.3348 Angstrom (    2.5225 Bohr)


  Bond distances (Angstrom):
  --------------------------

                  atom 1     atom 2       distance
                  ------     ------       --------
  bond distance:  C          C            1.462350
  bond distance:  C          C            1.334849
  bond distance:  C          C            1.501622
  bond distance:  H          C            1.081900
  bond distance:  H          C            1.081276
  bond distance:  H          C            1.083854
  bond distance:  H          C            1.084898
  bond distance:  H          C            1.074226
  bond distance:  H          C            1.076261


  Bond angles (degrees):
  ----------------------

                  atom 1     atom 2     atom 3         angle
                  ------     ------     ------         -----
  bond angle:     C          C          H            115.527
  bond angle:     C          C          C            125.254
  bond angle:     C          C          H            115.493
  bond angle:     C          C          H            119.253
  bond angle:     C          C          C            127.104
  bond angle:     C          C          H            116.862
  bond angle:     C          C          H            116.034
  bond angle:     C          C          H            111.335
  bond angle:     C          C          H            110.748
  bond angle:     C          C          H            110.873
  bond angle:     H          C          H            109.104
  bond angle:     H          C          H            105.993
  bond angle:     H          C          H            108.636




   ****************************************************************************
   *************** ABACUS - ROTATIONAL AND VIBRATIONAL ANALYSIS ***************
   ****************************************************************************


 Norm of (unprojected) molecular gradient (au) :     0.06054175

 WARNING: Vibrational analysis performed at a non-equilibrium geometry,
 better results may be obtained using .INTERN
 (this will correct Hessian for rotation coordinates).



 Conversion factors used:

    Hartree to (cm)-1      : 219474.62934
    a.m.u.  to a.u.        :   1822.88848
    Bohr    to Angstrom    :  0.529177211
    a.u.    to A**4amu-1   :   142.943572
    a.u.    to km (mol)-1  :      974.864


 Vibrational analysis for parent molecule only.
  Norm of projected gradient     0.060542


                         Isotopic Molecule No. 1
                         ======================= 


                                 Isotopic Masses
                                 ---------------

                           C          12.000000
                           C          12.000000
                           C          12.000000
                           C          12.000000
                           H           1.007825
                           H           1.007825
                           H           1.007825
                           H           1.007825
                           H           1.007825
                           H           1.007825

                       Total mass:    54.046950 amu
                       Natural abundance:  95.586 %

 Center-of-mass coordinates (a.u.):  -11.285621    3.529431   -0.001321
 Center-of-mass coordinates (Angs):   -5.972093    1.867695   -0.000699


 Principal moments of inertia (u*A**2) and principal axes
 --------------------------------------------------------

   IA      26.563130          0.351979    0.936008    0.000208
   IB      89.565224          0.935988   -0.351973    0.006493
   IC     113.112156         -0.006151    0.002091    0.999979


 Rotational constants
 --------------------

               A                   B                   C

          19025.5819           5642.5807           4467.9460 MHz
            0.634625            0.188216            0.149035 cm-1


  Vibrational Frequencies and IR Intensities
  ------------------------------------------

  mode   irrep        frequency             IR intensity
  ============================================================
                  cm-1       hartrees     km/mol   (D/A)**2/amu
  ------------------------------------------------------------
   1      A      3346.51    0.015248     52.462   1.2416
   2      A      3309.02    0.015077     42.482   1.0054
   3      A      3292.08    0.015000     11.395   0.2697
   4      A      3274.36    0.014919     14.075   0.3331
   5      A      3227.82    0.014707    130.748   3.0942
   6      A      3209.10    0.014622     14.276   0.3379
   7      A      1821.28    0.008298    192.304   4.5510
   8      A      1641.59    0.007480      8.505   0.2013
   9      A      1638.44    0.007465     11.568   0.2738
  10      A      1597.46    0.007279     17.567   0.4157
  11      A      1576.13    0.007181     10.345   0.2448
  12      A      1426.64    0.006500     45.005   1.0651
  13      A      1287.28    0.005865      1.265   0.0299
  14      A      1247.01    0.005682      0.587   0.0139
  15      A      1133.70    0.005166     35.894   0.8495
  16      A      1122.65    0.005115      2.961   0.0701
  17      A      1096.20    0.004995     45.438   1.0753
  18      A       972.40    0.004431     29.093   0.6885
  19      A       832.17    0.003792     14.472   0.3425
  20      A       665.54    0.003032      4.573   0.1082
  21      A       393.17    0.001791      0.239   0.0057
  22      A       286.20    0.001304      8.993   0.2128
  23      A       160.71    0.000732     61.697   1.4601
  24      A       282.78i   0.001288i



  Normal Coordinates (bohrs*amu**(1/2)):
  --------------------------------------


                1  3347     2  3309     3  3292     4  3274     5  3228 
  ----------------------------------------------------------------------

    C      x    0.001792   -0.003371    0.001073   -0.000560   -0.024067
    C      y    0.006246   -0.013656    0.003435   -0.001481   -0.075134
    C      z    0.000125   -0.000283   -0.000098   -0.000225   -0.001744

    C      x   -0.020180    0.040314   -0.004110    0.000610   -0.004472
    C      y    0.036897   -0.056552    0.004020    0.000110    0.011588
    C      z   -0.000145    0.000327    0.000164    0.000204   -0.000072

    C      x   -0.072619   -0.035200    0.017023   -0.005181    0.000542
    C      y   -0.009591    0.000692    0.001731   -0.001224   -0.000024
    C      z   -0.000472   -0.000292   -0.000088   -0.000583    0.000018

    C      x   -0.010730   -0.013477   -0.070523    0.027317   -0.002762
    C      y   -0.009237   -0.007826   -0.035190    0.021547   -0.000983
    C      z   -0.001064   -0.002852   -0.033573   -0.078612    0.000453

    H      x    0.042033    0.062468    0.440789    0.323778    0.010288
    H      y   -0.005835   -0.005541   -0.032288   -0.011214   -0.000611
    H      z    0.050333    0.074861    0.517231    0.334339    0.013266

    H      x    0.087989    0.085662    0.402168   -0.280570    0.012587
    H      y    0.107566    0.102065    0.468985   -0.325412    0.016431
    H      z   -0.012077   -0.012471   -0.062305    0.018864   -0.001865

    H      x    0.012545    0.012518    0.003650   -0.374382    0.009456
    H      y   -0.006046   -0.005771   -0.014773    0.085614   -0.002505
    H      z   -0.025214   -0.028134   -0.051490    0.591632   -0.017263

    H      x   -0.019778    0.040565   -0.010369    0.004516    0.241832
    H      y   -0.074260    0.157367   -0.044063    0.017888    0.906112
    H      z   -0.001598    0.003598    0.000925    0.003059    0.021045

    H      x    0.270226   -0.496353    0.042795   -0.002608    0.111727
    H      y   -0.358878    0.651061   -0.055363    0.003643   -0.148982
    H      z    0.001954   -0.003707   -0.000377   -0.001329    0.000916

    H      x    0.818358    0.434863   -0.205852    0.065106   -0.019660
    H      y    0.047941    0.021732   -0.012882    0.003824   -0.001818
    H      z    0.005146    0.002756   -0.003965   -0.003349   -0.000080


                6  3209     7  1821     8  1642     9  1638    10  1597 
  ----------------------------------------------------------------------

    C      x   -0.000164    0.000809    0.004985    0.001932   -0.002131
    C      y   -0.000497    0.017626    0.001112    0.001979    0.023352
    C      z    0.000024    0.000648   -0.002405    0.003790    0.000446

    C      x    0.000412   -0.084485    0.001747   -0.004089   -0.089452
    C      y   -0.000432   -0.158170   -0.009018   -0.010970   -0.040433
    C      z    0.000036   -0.000437    0.000097    0.000141   -0.001298

    C      x    0.001916    0.056684   -0.016628   -0.006707    0.040268
    C      y    0.001862    0.192046    0.013774    0.008865   -0.075648
    C      z   -0.000111   -0.000724    0.009585   -0.014564    0.001296

    C      x    0.023731   -0.008527   -0.008704   -0.013365   -0.029828
    C      y   -0.042705   -0.031659   -0.059710   -0.031852    0.050553
    C      z   -0.011010    0.001491    0.031144   -0.047201    0.004118

    H      x   -0.308264   -0.013947    0.419330    0.046260    0.149846
    H      y    0.008166    0.057291    0.395416   -0.283323   -0.147595
    H      z   -0.365127    0.013098   -0.321519   -0.085539   -0.158031

    H      x    0.369433    0.074517   -0.428533   -0.153198    0.073341
    H      y    0.416535   -0.107307    0.287838    0.181191   -0.037446
    H      z   -0.052050   -0.014027   -0.317867    0.635709   -0.034862

    H      x   -0.336931   -0.018666    0.292958    0.370802    0.152937
    H      y    0.063787    0.026451    0.013752    0.488420   -0.159674
    H      z    0.550024   -0.014013    0.188902    0.135321    0.139191

    H      x    0.001949    0.105744   -0.004426    0.007422    0.095182
    H      y    0.009771   -0.010511    0.002421    0.001287    0.004147
    H      z    0.000028   -0.003283    0.015605   -0.023605   -0.001809

    H      x   -0.003983    0.171614   -0.040950    0.000582    0.480020
    H      y    0.001996    0.002116   -0.041789   -0.007947    0.390657
    H      z   -0.000092    0.003641   -0.010110    0.015293    0.005896

    H      x   -0.030527    0.103655   -0.016905   -0.007202    0.014845
    H      y   -0.002887   -0.204299   -0.016550    0.001132    0.452082
    H      z   -0.001077    0.002932   -0.012485    0.011441   -0.004721


               11  1576    12  1427    13  1287    14  1247    15  1134 
  ----------------------------------------------------------------------

    C      x   -0.001523    0.068343    0.096902    0.003252   -0.136406
    C      y    0.010640   -0.026581   -0.041672   -0.000511   -0.002122
    C      z    0.000062    0.000041   -0.001284    0.003015   -0.000499

    C      x   -0.037202   -0.076453   -0.091015   -0.001683    0.113091
    C      y   -0.010569   -0.032029    0.073292    0.003224    0.013533
    C      z   -0.000306    0.000773    0.000147    0.056969   -0.004917

    C      x    0.021479    0.023822    0.100236   -0.000357    0.029657
    C      y   -0.044801    0.037878   -0.041111   -0.001817    0.028460
    C      z   -0.000989   -0.002180    0.002941   -0.147186   -0.001750

    C      x    0.063907    0.032675   -0.100925   -0.001008   -0.052734
    C      y   -0.068721   -0.007502   -0.012371   -0.000792   -0.073601
    C      z   -0.002744    0.001947   -0.001859    0.092035    0.009027

    H      x   -0.260509    0.004119   -0.004851    0.188173    0.060042
    H      y    0.374032   -0.038988    0.299999   -0.247180    0.258267
    H      z    0.285419    0.025269   -0.064148   -0.097749   -0.066104

    H      x   -0.275365    0.008644    0.188606    0.008577    0.286829
    H      y    0.230325    0.009644   -0.241908   -0.038016   -0.351520
    H      z    0.022519   -0.002697    0.015467   -0.181363   -0.004663

    H      x   -0.297973   -0.015313    0.048139   -0.192665    0.064436
    H      y    0.362787   -0.018274    0.239676    0.287392    0.253949
    H      z   -0.267601   -0.025525    0.052657   -0.079118    0.030421

    H      x    0.039641   -0.105608   -0.331336   -0.010010    0.093460
    H      y    0.001935    0.027045    0.085221    0.004445   -0.075219
    H      z   -0.000254    0.000119    0.008195   -0.044203    0.000493

    H      x    0.231317   -0.458832   -0.072773    0.007998    0.035061
    H      y    0.194804   -0.331204    0.081735    0.009131   -0.039790
    H      z    0.002332   -0.004354   -0.002407   -0.192172    0.046553

    H      x    0.007308   -0.009148    0.110325   -0.004491    0.012562
    H      y    0.186969    0.687957   -0.204415   -0.017012    0.355918
    H      z    0.004928    0.000266   -0.009108    0.537055   -0.028855


               16  1123    17  1096    18   972    19   832    20   666 
  ----------------------------------------------------------------------

    C      x    0.013556    0.019542   -0.094971    0.002073   -0.091960
    C      y   -0.003832    0.070870   -0.048230    0.001611   -0.059234
    C      z    0.014550    0.002120    0.000112    0.043178    0.000216

    C      x   -0.007175   -0.031227    0.060296    0.001283   -0.067121
    C      y    0.005440   -0.037851   -0.081497    0.001012    0.132540
    C      z   -0.094075   -0.008028   -0.003339   -0.069079   -0.001794

    C      x   -0.009992    0.037006    0.128297   -0.003491    0.135413
    C      y    0.004044   -0.086447   -0.025274    0.000749    0.039310
    C      z    0.000914   -0.001366   -0.001672   -0.063343   -0.000922

    C      x    0.009874   -0.063503   -0.048141   -0.000347    0.018744
    C      y   -0.003653    0.065371    0.140959   -0.004298   -0.072791
    C      z    0.079971    0.006847    0.002235   -0.029968    0.000754

    H      x    0.173413   -0.025518   -0.060858   -0.120582   -0.003640
    H      y   -0.281003    0.127571    0.006147    0.259165   -0.247173
    H      z   -0.089435   -0.025202    0.002005    0.101737    0.009504

    H      x   -0.007403    0.016501   -0.191461   -0.001130   -0.184927
    H      y   -0.016973    0.001612    0.265287    0.018829    0.095540
    H      z   -0.162050   -0.014638   -0.010416    0.170043   -0.001124

    H      x   -0.189155   -0.041306   -0.080194    0.141995   -0.023284
    H      y    0.263032    0.155249    0.042508   -0.285174   -0.214769
    H      z   -0.091955    0.007533   -0.002106    0.108538   -0.004837

    H      x   -0.056416    0.717374   -0.324435   -0.002135    0.256076
    H      y    0.017375   -0.113598    0.004122    0.005197   -0.148640
    H      z   -0.049217   -0.000581   -0.002366   -0.068415    0.001724

    H      x    0.011897   -0.253009   -0.019544   -0.003873   -0.122656
    H      y    0.024166   -0.205263   -0.150041    0.000516    0.088351
    H      z    0.671258    0.051029    0.033844    0.527268    0.008455

    H      x   -0.006902    0.040597    0.134958   -0.008553    0.137063
    H      y   -0.030390   -0.107777   -0.000815    0.012494   -0.047510
    H      z   -0.294787   -0.013061    0.010757    0.580260    0.007063


               21   393    22   286    23   161    24   283i
  ----------------------------------------------------------

    C      x    0.000511    0.027236    0.003354    0.001408
    C      y   -0.000945    0.178437    0.019656    0.005081
    C      z   -0.075097    0.005493   -0.045122   -0.104033

    C      x   -0.001268    0.052243    0.004930    0.000808
    C      y    0.000058   -0.018117   -0.003212   -0.000999
    C      z    0.172269    0.001857   -0.000937    0.002472

    C      x   -0.000276    0.061192    0.005578   -0.000274
    C      y   -0.000500   -0.026192   -0.002627    0.000551
    C      z   -0.132991    0.004614   -0.047724    0.012809

    C      x    0.000688   -0.093869   -0.008044   -0.001862
    C      y    0.001387   -0.114218   -0.010007   -0.003275
    C      z    0.032938   -0.003248    0.027192    0.013404

    H      x   -0.088439   -0.121561    0.228598   -0.308207
    H      y    0.120991   -0.231455    0.130182   -0.171852
    H      z    0.118939    0.017568   -0.180245    0.277510

    H      x   -0.010594   -0.210287    0.003181   -0.032913
    H      y    0.015831   -0.019424    0.020906   -0.019476
    H      z    0.083226   -0.032843    0.392575   -0.367336

    H      x    0.097681   -0.095802   -0.286308    0.345274
    H      y   -0.136505   -0.182164   -0.199965    0.179175
    H      z    0.114024    0.004030   -0.125070    0.208461

    H      x    0.005185   -0.165754   -0.020755   -0.005471
    H      y    0.001123    0.228375    0.007911   -0.008152
    H      z   -0.211570   -0.084876    0.723747    0.546813

    H      x   -0.001102   -0.020765    0.000567    0.001244
    H      y    0.000872   -0.072357   -0.005989    0.000187
    H      z    0.293330   -0.007685    0.046195    0.114299

    H      x    0.001364    0.056901    0.005450   -0.000887
    H      y   -0.002311    0.039956    0.001591    0.003950
    H      z   -0.363649    0.000023   -0.064321    0.117422




  Dipole Gradient in Normal Coordinate Basis (D/(A*amu**(1/2)))
  -------------------------------------------------------------


  mode           dMA/dQi        dMB/dQi        dMC/dQi
  ----------------------------------------------------
   1           -1.071332       0.306110      -0.009744
   2            0.293949      -0.958621      -0.003844
   3           -0.312829      -0.387992      -0.145870
   4            0.178681       0.336565      -0.433468
   5           -0.954680      -1.477217      -0.025422
   6           -0.049027      -0.576620      -0.054428
   7            1.087704       1.835036       0.023048
   8            0.278971       0.198372      -0.290016
   9            0.253271       0.187894       0.417515
  10            0.570783       0.299065      -0.022225
  11           -0.365954       0.331563       0.030886
  12            0.626984       0.819736       0.002239
  13            0.088947      -0.146308      -0.024686
  14           -0.041034      -0.073908      -0.082128
  15           -0.430158      -0.815083       0.007553
  16           -0.093561      -0.045217       0.243483
  17            0.952293       0.409906       0.020915
  18           -0.521240      -0.645575       0.007221
  19           -0.010642       0.008166       0.585067
  20            0.325429      -0.047671       0.006456
  21           -0.010488      -0.010427      -0.073788
  22           -0.264740      -0.349765      -0.142836
  23           -0.014854       0.001275       1.208252
  24            0.035982       0.022282       1.407590



                              Total Molecular Energy
                              ----------------------

             electronic     vibrational           total    energy 

            -154.750678        0.087840     -154.662838    Hartrees
           -33963847.70        19278.75    -33944568.95    cm-1
             -406297.84          230.63      -406067.22    kJ/mol
              -97107.51           55.12       -97052.39    kcal/mol


                          Molecular Partition Functions
                          -----------------------------

 Qtran is evaluated per mol at 1 atm. pressure.
 Qrot does not include symmetry numbers.
 Qvib does not include zero point energies
 (i.e., energy scale has vibrational ground state as zero).


 Temp.(K)  Translational     Rotational    Vibrational      Total

    50.00     1.7986D+05        2725.36         1.0102   4.951873D+08
   100.00     1.0175D+06        7702.98         1.1323   8.874642D+09
   200.00     5.7557D+06       21779.53         1.8011   2.257735D+11
   273.15     1.2547D+07       34758.73         2.7364   1.193348D+12
   298.15     1.5617D+07       39637.36         3.1850   1.971609D+12
   300.00     1.5861D+07       40006.79         3.2215   2.044161D+12
   400.00     3.2559D+07       61590.83         6.1514   1.233556D+13
   500.00     5.6878D+07       86072.72        12.3775   6.059610D+13
   600.00     8.9722D+07      113142.84        25.8666   2.625822D+14
   700.00     1.3191D+08      142573.85        55.3403   1.040751D+15
   800.00     1.8418D+08      174189.61       119.8071   3.843706D+15
   900.00     2.4724D+08      207848.42       260.2224   1.337268D+16
  1000.00     3.2175D+08      243433.04       563.6419   4.414722D+16
  1500.00     8.8664D+08      447204.41     23128.5817   9.170728D+18
  2000.00     1.8201D+09      688508.04    670592.3535   8.403557D+20


 CPU time statistics for ABACUS
 ------------------------------

 REST       00:00:02     100 %

 TOTAL      00:00:02     100 %


  Total CPU  time used in ABACUS:   1.65 seconds
  Total wall time used in ABACUS:   1.81 seconds


                   .-------------------------------------------.
                   | End of Static Property Section (ABACUS) - |
                   `-------------------------------------------'

  Total CPU  time used in DALTON:   1.87 seconds
  Total wall time used in DALTON:   2.77 seconds

 
     Date and time (Linux)  : Tue Mar 26 11:25:48 2024
     Host name              : node103                                 
