

     ************************************************************************
     *************** Dalton - An Electronic Structure Program ***************
     ************************************************************************

    This is output from DALTON release Dalton2022.0-dev (2022)
         ( Web site: http://daltonprogram.org )

   ----------------------------------------------------------------------------

    NOTE:
     
    Dalton is an experimental code for the evaluation of molecular
    properties using (MC)SCF, DFT, CI, and CC wave functions.
    The authors accept no responsibility for the performance of
    the code or for the correctness of the results.
     
    The code (in whole or part) is provided under a licence and
    is not to be reproduced for further distribution without
    the written permission of the authors or their representatives.
     
    See the home page "http://daltonprogram.org" for further information.
     
    If results obtained with this code are published,
    the appropriate citations would be both of:
     
       K. Aidas, C. Angeli, K. L. Bak, V. Bakken,
       R. Bast, L. Boman, O. Christiansen, R. Cimiraglia,
       S. Coriani, P. Dahle, E. K. Dalskov, U. Ekstroem,
       T. Enevoldsen, J. J. Eriksen, P. Ettenhuber, B. Fernandez,
       L. Ferrighi, H. Fliegl, L. Frediani, K. Hald, A. Halkier,
       C. Haettig, H. Heiberg, T. Helgaker, A. C. Hennum,
       H. Hettema, E. Hjertenaes, S. Hoest, I.-M. Hoeyvik,
       M. F. Iozzi, B. Jansik, H. J. Aa. Jensen, D. Jonsson,
       P. Joergensen, J. Kauczor, S. Kirpekar,
       T. Kjaergaard, W. Klopper, S. Knecht, R. Kobayashi, H. Koch,
       J. Kongsted, A. Krapp, K. Kristensen, A. Ligabue,
       O. B. Lutnaes, J. I. Melo, K. V. Mikkelsen, R. H. Myhre,
       C. Neiss, C. B. Nielsen, P. Norman, J. Olsen,
       J. M. H. Olsen, A. Osted, M. J. Packer, F. Pawlowski,
       T. B. Pedersen, P. F. Provasi, S. Reine, Z. Rinkevicius,
       T. A. Ruden, K. Ruud, V. Rybkin, P. Salek, C. C. M. Samson,
       A. Sanchez de Meras, T. Saue, S. P. A. Sauer,
       B. Schimmelpfennig, K. Sneskov, A. H. Steindal,
       K. O. Sylvester-Hvid, P. R. Taylor, A. M. Teale,
       E. I. Tellgren, D. P. Tew, A. J. Thorvaldsen, L. Thoegersen,
       O. Vahtras, M. A. Watson, D. J. D. Wilson, M. Ziolkowski
       and H. Agren,
       "The Dalton quantum chemistry program system",
       WIREs Comput. Mol. Sci. 2014, 4:269-284 (doi: 10.1002/wcms.1172)
     
    and
     
       Dalton, a molecular electronic structure program,
       Release Dalton2022.0-dev (2022), see http://daltonprogram.org
   ----------------------------------------------------------------------------

    Authors in alphabetical order (Major contribution(s) in parenthesis):

  Kestutis Aidas,              Vilnius University,        Lithuania   (QM/MM)
  Celestino Angeli,            University of Ferrara,     Italy       (NEVPT2)
  Juan J. Aucar,               Northeast National UniversiArgentina   (LRESC, Relativistic Effects on EFG)
  Keld L. Bak,                 UNI-C,                     Denmark     (AOSOPPA, non-adiabatic coupling, magnetic properties)
  Vebjoern Bakken,             University of Oslo,        Norway      (DALTON; geometry optimizer, symmetry detection)
  Radovan Bast,                UiT The Arctic U. of NorwayNorway      (DALTON installation and execution frameworks)
  Pablo Baudin,                University of Valencia,    Spain       (Cholesky excitation energies)
  Linus Boman,                 NTNU,                      Norway      (Cholesky decomposition and subsystems)
  Bruno N. Cabral Tenorio,     Technical Univ. of Denmark,Denmark     (Lanczos-based CC methods)
  Ove Christiansen,            Aarhus University,         Denmark     (CC module)
  Renzo Cimiraglia,            University of Ferrara,     Italy       (NEVPT2)
  Sonia Coriani,               Technical Univ. of Denmark,Denmark     (CC and RESPONS modules)
  Janusz Cukras,               University of Warsaw,      Poland      (MChD in RESPONS)
  Paal Dahle,                  University of Oslo,        Norway      (Parallelization)
  Erik K. Dalskov,             UNI-C,                     Denmark     (SOPPA)
  Thomas Enevoldsen,           Univ. of Southern Denmark, Denmark     (SOPPA)
  Janus J. Eriksen,            Aarhus University,         Denmark     (Polarizable embedding, TDA)
  Rasmus Faber,                Technical Univ. of Denmark,Denmark     (Vib.avg. NMR w. SOPPA, parallel AO-SOPPA, CVS-CC and EOMCC)
  Tobias Fahleson,             KTH Stockholm,             Sweden      (Damped cubic response)
  Berta Fernandez,             U. of Santiago de CompostelSpain       (Doublet spin, ESR in RESPONS)
  Lara Ferrighi,               Aarhus University,         Denmark     (PCM Cubic response)
  Heike Fliegl,                University of Oslo,        Norway      (CCSD(R12))
  Luca Frediani,               UiT The Arctic U. of NorwayNorway      (PCM)
  Emmanuel Fromager,           Univ. Strasbourg,          France      (MC-srDFT)
  Bin Gao,                     UiT The Arctic U. of NorwayNorway      (Gen1Int library)
  Andre S. P. Gomes,           CNRS/Universite de Lille,  France      (Frozen density embedding)
  Christof Haettig,            Ruhr-University Bochum,    Germany     (CC module)
  Kasper Hald,                 Aarhus University,         Denmark     (CC module)
  Asger Halkier,               Aarhus University,         Denmark     (CC module)
  Frederik Beyer Hansen,       University of Copenhagen,  Denmark     (Parallel AO-SOPPA)
  Erik D. Hedegaard,           Univ. of Southern Denmark, Denmark     (Polarizable embedding, QM/MM, and MC-srDFT)
  Hanne Heiberg,               University of Oslo,        Norway      (Geometry analysis, selected one-electron integrals)
  Trygve Helgaker,             University of Oslo,        Norway      (DALTON; ABACUS, ERI, DFT modules, London, and much more)
  Alf Christian Hennum,        University of Oslo,        Norway      (Parity violation)
  Hinne Hettema,               University of Auckland,    New Zealand (Quadratic response in RESPONS; SIRIUS supersymmetry)
  Andreas E. Hillers-Bendtsen, University of Copenhagen,  Denmark     (MP3)
  Eirik Hjertenaes,            NTNU,                      Norway      (Cholesky decomposition)
  Nicolai Machholdt Hoeyer,    Aarhus University,         Denmark     (MP3)
  Pi A. B. Haase,              University of Copenhagen,  Denmark     (Triplet AO-SOPPA)
  Maria Francesca Iozzi,       University of Oslo,        Norway      (RPA)
  Christoph Jacob,             TU Braunschweig            Germany     (Frozen density embedding)
  Brano Jansik,                Technical Univ. of Ostrava Czech Rep.  (DFT cubic response)
  Hans Joergen Aa. Jensen,     Univ. of Southern Denmark, Denmark     (DALTON; SIRIUS, RESPONS, ABACUS, MC-srDFT, and much more)
  Dan Jonsson,                 UiT The Arctic U. of NorwayNorway      (Cubic response in RESPONS module)
  Poul Joergensen,             Aarhus University,         Denmark     (RESPONS, ABACUS, and CC modules)
  Maciej Kaminski,             University of Warsaw,      Poland      (CPPh in RESPONS)
  Joanna Kauczor,              Linkoeping University,     Sweden      (Complex polarization propagator (CPP) module)
  Sheela Kirpekar,             Univ. of Southern Denmark, Denmark     (Mass-velocity & Darwin integrals)
  Frederik Oersted Kjeldal,    Technical Univ. of Denmark,Denmark     (MP3)
  Erik Kjellgren,              Univ. of Southern Denmark, Denmark     (MC-srDFT)
  Wim Klopper,                 KIT Karlsruhe,             Germany     (R12 code in CC, SIRIUS, and ABACUS modules)
  Stefan Knecht,               ETH Zurich,                Switzerland (Parallel CI and MCSCF, MC-srDFT)
  Rika Kobayashi,              Australian National Univ., Australia   (DIIS in CC, London in MCSCF)
  Henrik Koch,                 NTNU,                      Norway      (CC module, Cholesky decomposition)
  Jacob Kongsted,              Univ. of Southern Denmark, Denmark     (Polarizable embedding, polarizable density embedding, QM/MM)
  Andrea Ligabue,              University of Modena,      Italy       (CTOCD, AOSOPPA)
  Nanna H. List,               Univ. of Southern Denmark, Denmark     (Polarizable embedding)
  Ola B. Lutnaes,              University of Oslo,        Norway      (DFT Hessian)
  Juan I. Melo,                University of Buenos Aires,Argentina   (LRESC, Relativistic Effects on NMR Shieldings)
  Kurt V. Mikkelsen,           University of Copenhagen,  Denmark     (MC-SCRF, QM/MM, and MP3)
  Rolf H. Myhre,               NTNU,                      Norway      (Subsystems and CC3)
  Christian Neiss,             Univ. Erlangen-Nuernberg,  Germany     (CCSD(R12))
  Christian B. Nielsen,        University of Copenhagen,  Denmark     (QM/MM)
  Patrick Norman,              KTH Stockholm,             Sweden      (Cubic response and complex frequency response in RESPONS)
  Jeppe Olsen,                 Aarhus University,         Denmark     (SIRIUS CI/density modules)
  Jogvan Magnus H. Olsen,      Aarhus University,         Denmark     (Polarizable embedding and polarizable density embedding)
  Anders Osted,                Copenhagen University,     Denmark     (QM/MM)
  Martin J. Packer,            University of Sheffield,   UK          (SOPPA)
  Filip Pawlowski,             Kazimierz Wielki UniversityPoland      (CC3)
  Morten N. Pedersen,          Univ. of Southern Denmark, Denmark     (Polarizable embedding)
  Thomas B. Pedersen,          University of Oslo,        Norway      (Cholesky decomposition)
  Patricio F. Provasi,         University of Northeastern,Argentina   (Analysis of coupling constants in localized orbitals)
  Peter Reinholdt,             Univ. of Southern Denmark, Denmark     (Polarizable embedding and polarizable density embedding)
  Zilvinas Rinkevicius,        KTH Stockholm,             Sweden      (open-shell DFT, ESR)
  Elias Rudberg,               KTH Stockholm,             Sweden      (DFT grid and basis info)
  Torgeir A. Ruden,            University of Oslo,        Norway      (Numerical derivatives in ABACUS)
  Kenneth Ruud,                UiT The Arctic U. of NorwayNorway      (DALTON; ABACUS magnetic properties and much more)
  Pawel Salek,                 KTH Stockholm,             Sweden      (DALTON; DFT code)
  Claire C. M. Samson,         University of Karlsruhe    Germany     (Boys localization, r12 integrals in ERI)
  Alfredo Sanchez de Meras,    University of Valencia,    Spain       (CC module, Cholesky decomposition)
  Trond Saue,                  Paul Sabatier University,  France      (direct Fock matrix construction)
  Stephan P. A. Sauer,         University of Copenhagen,  Denmark     (SOPPA(CCSD), SOPPA prop., AOSOPPA, vibrational g-factors)
  Bernd Schimmelpfennig,       Forschungszentrum KarlsruheGermany     (AMFI module)
  Anna K. Schnack-Petersen,    University of Copenhagen,  Denmark     (RPA(D) and HRPA(D) properties in AOSOPPA)
  Kristian Sneskov,            Aarhus University,         Denmark     (Polarizable embedding, QM/MM)
  Arnfinn H. Steindal,         UiT The Arctic U. of NorwayNorway      (parallel QM/MM, polarizable embedding)
  Casper Steinmann,            Aalborg University,        Denmark     (QFIT, polarizable embedding)
  K. O. Sylvester-Hvid,        University of Copenhagen,  Denmark     (MC-SCRF)
  Peter R. Taylor,             VLSCI/Univ. of Melbourne,  Australia   (Symmetry handling ABACUS, integral transformation)
  Andrew M. Teale,             University of Nottingham,  England     (DFT-AC, DFT-D)
  David P. Tew,                University of Bristol,     England     (CCSD(R12))
  Julien Toulouse,             Sorbonne Univ.,            France      (MC-srDFT)
  Olav Vahtras,                KTH Stockholm,             Sweden      (Triplet response, spin-orbit, ESR, TDDFT, open-shell DFT)
  Lucas Visscher,              Vrije Universiteit AmsterdaNetherlands (Frozen density embedding)
  David J. Wilson,             La Trobe University,       Australia   (DFT Hessian and DFT magnetizabilities)
  Luna Zamok,                  University of Copenhagen,  Denmark     (Block Lanczos RPA solver in SOPPA module)
  Hans Agren,                  KTH Stockholm,             Sweden      (SIRIUS module, RESPONS, MC-SCRF solvation)
 --------------------------------------------------------------------------------

     Date and time (Linux)  : Tue Mar 26 11:04:37 2024
     Host name              : node103                                 

 * Work memory size             :    64000000 =  488.28 megabytes.

 * Directories for basis set searches:
   1) /home1/s4925076/Sample_inputs_dalton2024_updated/ex1/31G/ethene_opt
   2) /home3/hb-qchav/Dalton/basis


Compilation information
-----------------------

 Who compiled             | p256146
 Host                     | login1
 System                   | Linux-4.18.0-425.13.1.el8_7.x86_64
 CMake generator          | Unix Makefiles
 Processor                | x86_64
 64-bit integers          | OFF
 MPI                      | ON
 Fortran compiler         | /cvmfs/hpc.rug.nl/versions/2023.01/rocky8/x86_64/a
                          | md/zen3/software/impi/2021.7.1-intel-compilers-202
                          | 2.2.1/mpi/2021.7.1/bin/mpiifort
 Fortran compiler version | unknown
 C compiler               | /cvmfs/hpc.rug.nl/versions/2023.01/rocky8/x86_64/a
                          | md/zen3/software/impi/2021.7.1-intel-compilers-202
                          | 2.2.1/mpi/2021.7.1/bin/mpiicc
 C compiler version       | unknown
 C++ compiler             | /cvmfs/hpc.rug.nl/versions/2023.01/rocky8/x86_64/a
                          | md/zen3/software/impi/2021.7.1-intel-compilers-202
                          | 2.2.1/mpi/2021.7.1/bin/mpiicpc
 C++ compiler version     | unknown
 BLAS                     | /cvmfs/hpc.rug.nl/versions/2023.01/rocky8/x86_64/a
                          | md/zen3/software/imkl/2022.2.1/mkl/2022.2.1/lib/in
                          | tel64/libmkl_intel_lp64.so;/cvmfs/hpc.rug.nl/versi
                          | ons/2023.01/rocky8/x86_64/amd/zen3/software/imkl/2
                          | 022.2.1/mkl/2022.2.1/lib/intel64/libmkl_sequential
                          | .so;/cvmfs/hpc.rug.nl/versions/2023.01/rocky8/x86_
                          | 64/amd/zen3/software/imkl/2022.2.1/mkl/2022.2.1/li
                          | b/intel64/libmkl_core.so;/usr/lib64/libpthread.so;
                          | /usr/lib64/libm.so
 LAPACK                   | /cvmfs/hpc.rug.nl/versions/2023.01/rocky8/x86_64/a
                          | md/zen3/software/imkl/2022.2.1/mkl/2022.2.1/lib/in
                          | tel64/libmkl_lapack95_lp64.a;/cvmfs/hpc.rug.nl/ver
                          | sions/2023.01/rocky8/x86_64/amd/zen3/software/imkl
                          | /2022.2.1/mkl/2022.2.1/lib/intel64/libmkl_intel_lp
                          | 64.so
 Static linking           | OFF
 Last Git revision        | 4d6ac05be54d7f9c5fe49e0ac32a42491a6c6955
 Git branch               | master
 Configuration time       | 2023-04-05 13:35:07.780405

 * Sequential calculation.


   Content of the .dal input file
 ----------------------------------

**DALTON INPUT
.RUN WAVEFUNCTION
.OPTIMIZE
**WAVE FUNCTION
.HF
**END OF DALTON INPUT


   Content of the .mol file
 ----------------------------

BASIS
6-31G
opt

Atomtypes=2 Nosymmetry
Charge=6.0 Atoms=2
C      0.0000000000            1.2491381939            0.0000000000
C      0.0000000000           -1.2491381939            0.0000000000
Charge=1.0 Atoms=4
H      1.7224727312            2.3225293999            0.0000000000
H     -1.7224727312            2.3225293999            0.0000000000
H      1.7224727312           -2.3225293999            0.0000000000
H     -1.7224727312           -2.3225293999            0.0000000000


       *******************************************************************
       *********** Output from DALTON general input processing ***********
       *******************************************************************

 --------------------------------------------------------------------------------
   Overall default print level:    0
   Print level for DALTON.STAT:    1

    HERMIT 1- and 2-electron integral sections will be executed
    "Old" integral transformation used (limited to max 255 basis functions)
    Wave function sections will be executed (SIRIUS module)
 --------------------------------------------------------------------------------


 Chosen parameters for *OPTIMI :
 -------------------------------

 Default 1st order method will be used:   BFGS update.
 Optimization will be performed in redundant internal coordinates (by default).
 Model Hessian will be used as initial Hessian.
 The model Hessian parameters of Roland Lindh will be used.
 
 
 Trust region method will be used to control step (default).
 
 Convergence threshold for gradient set to :      1.00D-04
 Convergence threshold for energy set to   :      1.00D-06
 Convergence threshold for step set to     :      1.00D-04
 Number of convergence criteria set to     :   2


              >>>>>>>>>>>>>>>>>>>>>>>>>>>>>>>>>>>>>>>>>>>>>>>>>>>>>
              >>>>>>>>>> 1st Order Geometry Optimization >>>>>>>>>>
              >>>>>>>>>>>>>>>>>>>>>>>>>>>>>>>>>>>>>>>>>>>>>>>>>>>>>


 Reading .mol file to determine number of atoms for parallel runs.


   ****************************************************************************
   *************** Output of molecule and basis set information ***************
   ****************************************************************************


    The two title cards from your ".mol" input:
    --------------------------------------------------------------------------------
 1: opt
 2: 
    --------------------------------------------------------------------------------

  Atomic type no.    1
  --------------------
  Nuclear charge:   6.00000
  Number of symmetry independent centers:    2
  Number of basis sets to read;    2
  Basis set file used for this atomic type with Z =   6 :
     "/home3/hb-qchav/Dalton/basis/6-31G"

  Info about the basis set file: your basis has no documentation.
  Basis set: 6-31G                                                                           

  Atomic type no.    2
  --------------------
  Nuclear charge:   1.00000
  Number of symmetry independent centers:    4
  Number of basis sets to read;    2
  Basis set file used for this atomic type with Z =   1 :
     "/home3/hb-qchav/Dalton/basis/6-31G"

  Info about the basis set file: your basis has no documentation.
  Basis set: 6-31G                                                                           


                         SYMGRP: Point group information
                         -------------------------------

@    Point group: C1 


                                 Isotopic Masses
                                 ---------------

                           C          12.000000
                           C          12.000000
                           H           1.007825
                           H           1.007825
                           H           1.007825
                           H           1.007825

                       Total mass:    28.031300 amu
                       Natural abundance:  97.753 %

 Center-of-mass coordinates (a.u.):    0.000000    0.000000    0.000000
 Center-of-mass coordinates (Angs):    0.000000    0.000000    0.000000


  Atoms and basis sets
  --------------------

  Number of atom types :    2
  Total number of atoms:    6

  Basis set used is "6-31G" from the basis set library.

  label    atoms   charge   prim   cont     basis
  ----------------------------------------------------------------------
  C           2    6.0000    22     9      [10s4p|3s2p]                                       
  H           4    1.0000     4     2      [4s|2s]                                            
  ----------------------------------------------------------------------
  total:      6   16.0000    60    26
  ----------------------------------------------------------------------

  Threshold for neglecting AO integrals:  1.00D-12


  Cartesian Coordinates (a.u.)
  ----------------------------

  Total number of coordinates:   18
  C       :     1  x   0.0000000000    2  y   1.2491381939    3  z   0.0000000000
  C       :     4  x   0.0000000000    5  y  -1.2491381939    6  z   0.0000000000
  H       :     7  x   1.7224727312    8  y   2.3225293999    9  z   0.0000000000
  H       :    10  x  -1.7224727312   11  y   2.3225293999   12  z   0.0000000000
  H       :    13  x   1.7224727312   14  y  -2.3225293999   15  z   0.0000000000
  H       :    16  x  -1.7224727312   17  y  -2.3225293999   18  z   0.0000000000


   Interatomic separations (in Angstrom):
   --------------------------------------

            C           C           H           H           H           H     
            ------      ------      ------      ------      ------      ------
 C     :    0.000000
 C     :    1.322031    0.000000
 H     :    1.073993    2.098354    0.000000
 H     :    1.073993    2.098354    1.822987    0.000000
 H     :    2.098354    1.073993    2.458059    3.060284    0.000000
 H     :    2.098354    1.073993    3.060284    2.458059    1.822987    0.000000


  Max    interatomic separation is    3.0603 Angstrom (    5.7831 Bohr)
  between atoms    5 and    4, "H     " and "H     ".

  Min HX interatomic separation is    1.0740 Angstrom (    2.0296 Bohr)

  Min YX interatomic separation is    1.3220 Angstrom (    2.4983 Bohr)


  Bond distances (Angstrom):
  --------------------------

                  atom 1     atom 2       distance
                  ------     ------       --------
  bond distance:  C          C            1.322031
  bond distance:  H          C            1.073993
  bond distance:  H          C            1.073993
  bond distance:  H          C            1.073993
  bond distance:  H          C            1.073993


  Bond angles (degrees):
  ----------------------

                  atom 1     atom 2     atom 3         angle
                  ------     ------     ------         -----
  bond angle:     C          C          H            121.930
  bond angle:     C          C          H            121.930
  bond angle:     H          C          H            116.140
  bond angle:     C          C          H            121.930
  bond angle:     C          C          H            121.930
  bond angle:     H          C          H            116.140




 Principal moments of inertia (u*A**2) and principal axes
 --------------------------------------------------------

   IA       3.349285          0.000000    1.000000    0.000000
   IB      16.575929          1.000000    0.000000    0.000000
   IC      19.925214          0.000000    0.000000    1.000000


 Rotational constants
 --------------------

@    The molecule is planar.

               A                   B                   C

         150891.6134          30488.7288          25363.7931 MHz
            5.033202            1.016995            0.846045 cm-1


@  Nuclear repulsion energy :   33.644649168686 Hartree


                     .---------------------------------------.
                     | Starting in Integral Section (HERMIT) |
                     `---------------------------------------'



 ***************************************************************************************
 ****************** Output from **INTEGRALS input processing (HERMIT) ******************
 ***************************************************************************************


 - Using defaults, no **INTEGRALS input found

 Default print level:        1

 Calculation of one- and two-electron Hamiltonian integrals.

 Center of mass  (bohr):      0.000000000000      0.000000000000      0.000000000000
 Operator center (bohr):      0.000000000000      0.000000000000      0.000000000000
 Gauge origin    (bohr):      0.000000000000      0.000000000000      0.000000000000
 Dipole origin   (bohr):      0.000000000000      0.000000000000      0.000000000000

Calculation of 2-electron integrals are postponed until they are needed.


     ************************************************************************
     ************************** Output from HERINT **************************
     ************************************************************************



                      Nuclear contribution to dipole moments
                      --------------------------------------

                 au               Debye          C m (/(10**-30)

      x      0.00000000         0.00000000         0.00000000
      y     -0.00000000        -0.00000000        -0.00000000
      z      0.00000000         0.00000000         0.00000000


  Total CPU  time used in HERMIT:   0.01 seconds
  Total wall time used in HERMIT:   0.01 seconds


                        .----------------------------------.
                        | End of Integral Section (HERMIT) |
                        `----------------------------------'



                   .--------------------------------------------.
                   | Starting in Wave Function Section (SIRIUS) |
                   `--------------------------------------------'


 *** Output from Huckel module :

     Using EWMO model:          T
     Using EHT  model:          F
     Number of Huckel orbitals each symmetry:   14

 EWMO - Energy Weighted Maximum Overlap - is a Huckel type method,
        which normally is better than Extended Huckel Theory.
 Reference: Linderberg and Ohrn, Propagators in Quantum Chemistry (Wiley, 1973)

 Huckel EWMO eigenvalues for symmetry :  1
          -11.356416     -11.346626      -1.527703      -1.043526      -0.846961
           -0.560536      -0.539809      -0.516871      -0.253264      -0.125428
           -0.124557      -0.122870      -0.089083      -0.088751

 **********************************************************************
 *SIRIUS* a direct, restricted step, second order MCSCF program       *
 **********************************************************************

 
     Date and time (Linux)  : Tue Mar 26 11:04:38 2024
     Host name              : node103                                 

 Title lines from ".mol" input file:
     opt
     

 Print level on unit LUPRI =   2 is   0
 Print level on unit LUW4  =   2 is   5

@    Restricted, closed shell Hartree-Fock calculation.

@    Time-dependent Hartree-Fock calculation (random phase approximation).

 Initial molecular orbitals are obtained according to
 ".MOSTART EWMO  " input option

     Wave function specification
     ============================
@    Wave function type        --- HF ---
@    Number of closed shell electrons          16
@    Number of electrons in active shells       0
@    Total charge of the molecule               0

@    Spin multiplicity and 2 M_S                1         0
@    Total number of symmetries                 1 (point group: C1 )
@    Reference state symmetry                   1 (irrep name : A  )

     Orbital specifications
     ======================
@    Abelian symmetry species          All |    1
@                                          |  A  
                                       --- |  ---
@    Occupied SCF orbitals               8 |    8
@    Secondary orbitals                 18 |   18
@    Total number of orbitals           26 |   26
@    Number of basis functions          26 |   26

     Optimization information
     ========================
@    Number of configurations                 1
@    Number of orbital rotations            144
     ------------------------------------------
@    Total number of variables              145

     Maximum number of Fock   iterations      0
     Maximum number of DIIS   iterations     60
     Maximum number of QC-SCF iterations     60
     Threshold for SCF convergence     1.00D-05


 ***********************************************
 ***** DIIS acceleration of SCF iterations *****
 ***********************************************

 C1-DIIS algorithm; max error vectors =    8

 Iter      Total energy        Error norm    Delta(E)  DIIS dim.
 -----------------------------------------------------------------------------

Calculating AOSUPINT

---> (Re)generating AOTWOINT


     ************************************************************************
     ************************** Output from HERINT **************************
     ************************************************************************


 Threshold for neglecting two-electron integrals:  1.00D-12
 HERMIT - Number of two-electron integrals written:       34472 ( 55.8% )
 HERMIT - Megabytes written:                              0.398

  Total CPU  time used in TWOINT:   0.01 seconds
  Total wall time used in TWOINT:   0.01 seconds
     (Precalculated AO two-electron integrals are transformed to P-supermatrix elements.
      Threshold for discarding integrals :  1.00D-12 )

@  1    -77.7040999006        1.93564D+00   -7.77D+01    1
      Virial theorem: -V/T =      2.026607
@    MULPOP   C       0.28; C       0.28; H      -0.14; H      -0.14; H      -0.14; H      -0.14; 
   1  Level shift: doubly occupied orbital energies shifted by -2.00D-01
 -----------------------------------------------------------------------------
@  2    -77.9875301964        4.60002D-01   -2.83D-01    2
      Virial theorem: -V/T =      1.994886
@    MULPOP   C      -0.28; C      -0.28; H       0.14; H       0.14; H       0.14; H       0.14; 
   2  Level shift: doubly occupied orbital energies shifted by -5.00D-02
 -----------------------------------------------------------------------------
@  3    -78.0033985646        9.14970D-02   -1.59D-02    3
      Virial theorem: -V/T =      1.999789
@    MULPOP   C      -0.29; C      -0.29; H       0.14; H       0.14; H       0.14; H       0.14; 
   3  Level shift: doubly occupied orbital energies shifted by -1.25D-02
 -----------------------------------------------------------------------------
@  4    -78.0044240155        1.47015D-02   -1.03D-03    4
      Virial theorem: -V/T =      1.998884
@    MULPOP   C      -0.32; C      -0.32; H       0.16; H       0.16; H       0.16; H       0.16; 
 -----------------------------------------------------------------------------
@  5    -78.0044554373        1.57600D-03   -3.14D-05    5
      Virial theorem: -V/T =      1.998768
@    MULPOP   C      -0.33; C      -0.33; H       0.16; H       0.16; H       0.16; H       0.16; 
 -----------------------------------------------------------------------------
@  6    -78.0044557799        1.65081D-04   -3.43D-07    6
      Virial theorem: -V/T =      1.998782
@    MULPOP   C      -0.33; C      -0.33; H       0.16; H       0.16; H       0.16; H       0.16; 
 -----------------------------------------------------------------------------
@  7    -78.0044557835        1.86636D-05   -3.60D-09    7
      Virial theorem: -V/T =      1.998782
@    MULPOP   C      -0.33; C      -0.33; H       0.16; H       0.16; H       0.16; H       0.16; 
 -----------------------------------------------------------------------------
@  8    -78.0044557835        1.40549D-06   -3.90D-11    8

@ *** DIIS converged in   8 iterations !
@     Converged SCF energy, gradient:    -78.004455783515    1.41D-06
    - total time used in SIRFCK :              0.00 seconds


 *** SCF orbital energy analysis ***

 Number of electrons        :   16
 Closed shell orbitals      :    8

 Sym       Hartree-Fock orbital energies

1 A     -11.22881772   -11.22707006    -1.03855489    -0.79207187    -0.64381797
         -0.58859112    -0.49950226    -0.37458440     0.17728012     0.26571442
          0.29105344     0.30937949     0.39204970     0.49278124     0.67531168
          0.78277975     0.78294036     0.89165354     0.89436909     1.00246012
          1.15741477     1.19599662     1.24336900     1.25367132     1.38982421
          1.52142616

    E(LUMO) :     0.17728012 au (symmetry 1)
  - E(HOMO) :    -0.37458440 au (symmetry 1)
  ------------------------------------------
    gap     :     0.55186452 au

 --- Writing SIRIFC interface file

--------------------------------------------------------------------------------


     .--------------------------------------------------.
     | HF-SCF KT IPs [a.u. & eV] from Koopmans' theorem |
     `--------------------------------------------------'


     HF-SCF KT symmetry 1 ( A  ) in point group C1  -- 8 principal poles with pole strength 1

   ============  ============  ============  ============  ============
      11.228818     11.227070      1.038555      0.792072      0.643818
     305.551673    305.504117     28.260516     21.553372     17.519178
   ============  ============  ============  ============  ============

   ============  ============  ============
       0.588591      0.499502      0.374584
      16.016379     13.592148     10.192960
   ============  ============  ============

@ Summary of HF-SCF KT ionization potentials [eV]:

@ Symmetry 1 (A  ) :   305.552     305.504      28.261      21.553      17.519
@                       16.016      13.592      10.193

  === End of HF-SCF KT output ===
--------------------------------------------------------------------------------


 CPU and wall time for SCF :       0.026       0.233


                       .-----------------------------------.
                       | --- Final results from SIRIUS --- |
                       `-----------------------------------'


@    Spin multiplicity:           1
@    Spatial symmetry:            1 ( irrep  A   in C1  )
@    Total charge of molecule:    0

@    Final HF energy:             -78.004455783515                 
@    Nuclear repulsion:            33.644649168686
@    Electronic energy:          -111.649104952201

@    Final gradient norm:           0.000001405490

 
     Date and time (Linux)  : Tue Mar 26 11:04:38 2024
     Host name              : node103                                 

File label for MO orbitals:  26Mar24   FOCKDIIS

 (Only coefficients > 0.0100 are printed.)

 Molecular orbitals for symmetry species 1  (A  )
 ------------------------------------------------

    Orbital         1        2        3        4        5        6        7
   1 C   :1s     0.7042  -0.7046   0.1582   0.1209   0.0000  -0.0097   0.0000
   2 C   :1s     0.0168  -0.0180  -0.3113  -0.2424  -0.0000   0.0257  -0.0000
   3 C   :1s    -0.0069   0.0152  -0.2240  -0.2404   0.0000  -0.0182   0.0000
   4 C   :2px   -0.0000  -0.0000   0.0000   0.0000  -0.3242   0.0000  -0.3074
   5 C   :2py    0.0001   0.0003   0.1139  -0.1663  -0.0000  -0.4130   0.0000
   7 C   :2px   -0.0000   0.0000   0.0000  -0.0000  -0.1262   0.0000  -0.2018
   8 C   :2py   -0.0008  -0.0029   0.0040  -0.0564   0.0000  -0.1450   0.0000
  10 C   :1s     0.7042   0.7046   0.1582  -0.1209   0.0000  -0.0097  -0.0000
  11 C   :1s     0.0168   0.0180  -0.3113   0.2424  -0.0000   0.0257   0.0000
  12 C   :1s    -0.0069  -0.0152  -0.2240   0.2404  -0.0000  -0.0182  -0.0000
  13 C   :2px   -0.0000  -0.0000   0.0000  -0.0000  -0.3242   0.0000   0.3074
  14 C   :2py   -0.0001   0.0003  -0.1139  -0.1663   0.0000   0.4130   0.0000
  16 C   :2px   -0.0000  -0.0000   0.0000   0.0000  -0.1262   0.0000   0.2018
  17 C   :2py    0.0008  -0.0029  -0.0040  -0.0564   0.0000   0.1450   0.0000
  19 H   :1s    -0.0003   0.0000  -0.0843  -0.1516  -0.1591  -0.1293  -0.1978
  20 H   :1s     0.0020  -0.0019  -0.0160  -0.0684  -0.1068  -0.1004  -0.1520
  21 H   :1s    -0.0003   0.0000  -0.0843  -0.1516   0.1591  -0.1293   0.1978
  22 H   :1s     0.0020  -0.0019  -0.0160  -0.0684   0.1068  -0.1004   0.1520
  23 H   :1s    -0.0003  -0.0000  -0.0843   0.1516  -0.1591  -0.1293   0.1978
  24 H   :1s     0.0020   0.0019  -0.0160   0.0684  -0.1068  -0.1004   0.1520
  25 H   :1s    -0.0003  -0.0000  -0.0843   0.1516   0.1591  -0.1293  -0.1978
  26 H   :1s     0.0020   0.0019  -0.0160   0.0684   0.1068  -0.1004  -0.1520

    Orbital         8        9       10       11       12       13       14
   1 C   :1s     0.0000   0.0000  -0.0768  -0.0000   0.1069   0.0000   0.0684
   2 C   :1s    -0.0000  -0.0000   0.0776   0.0000  -0.0992  -0.0000  -0.0104
   3 C   :1s    -0.0000  -0.0000   1.5066  -0.0000  -1.9395   0.0000  -3.1704
   4 C   :2px    0.0000   0.0000  -0.0000   0.2543  -0.0000  -0.2509   0.0000
   5 C   :2py    0.0000  -0.0000   0.1434   0.0000  -0.0977   0.0000   0.1386
   6 C   :2pz   -0.3774   0.3463  -0.0000  -0.0000   0.0000   0.0000   0.0000
   7 C   :2px    0.0000   0.0000  -0.0000   0.8132  -0.0000  -1.9109  -0.0000
   8 C   :2py    0.0000  -0.0000   0.6551   0.0000  -0.1622   0.0000   3.0487
   9 C   :2pz   -0.3070   0.7483  -0.0000  -0.0000   0.0000   0.0000   0.0000
  10 C   :1s     0.0000   0.0000  -0.0768  -0.0000  -0.1069  -0.0000  -0.0684
  11 C   :1s    -0.0000  -0.0000   0.0776   0.0000   0.0992   0.0000   0.0104
  12 C   :1s    -0.0000  -0.0000   1.5066   0.0000   1.9395  -0.0000   3.1704
  13 C   :2px   -0.0000  -0.0000  -0.0000   0.2543  -0.0000   0.2509  -0.0000
  14 C   :2py   -0.0000   0.0000  -0.1434  -0.0000  -0.0977   0.0000   0.1386
  15 C   :2pz   -0.3774  -0.3463  -0.0000   0.0000  -0.0000  -0.0000  -0.0000
  16 C   :2px   -0.0000  -0.0000  -0.0000   0.8132   0.0000   1.9109   0.0000
  17 C   :2py   -0.0000   0.0000  -0.6551  -0.0000  -0.1622   0.0000   3.0487
  18 C   :2pz   -0.3070  -0.7483  -0.0000   0.0000  -0.0000  -0.0000  -0.0000
  19 H   :1s     0.0000  -0.0000  -0.0143  -0.0463   0.0161  -0.0426  -0.0789
  20 H   :1s     0.0000  -0.0000  -1.0471  -1.1136   1.0812   1.6463  -0.6050
  21 H   :1s     0.0000   0.0000  -0.0143   0.0463   0.0161   0.0426  -0.0789
  22 H   :1s     0.0000   0.0000  -1.0471   1.1136   1.0812  -1.6463  -0.6050
  23 H   :1s     0.0000   0.0000  -0.0143  -0.0463  -0.0161   0.0426   0.0789
  24 H   :1s     0.0000   0.0000  -1.0471  -1.1136  -1.0812  -1.6463   0.6050
  25 H   :1s     0.0000  -0.0000  -0.0143   0.0463  -0.0161  -0.0426   0.0789
  26 H   :1s     0.0000  -0.0000  -1.0471   1.1136  -1.0812   1.6463   0.6050

    Orbital        15       16       17       18
   1 C   :1s     0.0190   0.0000  -0.0000   0.0000
   2 C   :1s     0.2466  -0.0000   0.0000  -0.0000
   3 C   :1s     0.2688  -0.0000  -0.0000  -0.0000
   4 C   :2px    0.0000   0.0000  -0.4511   0.0000
   5 C   :2py   -0.5834   0.0000   0.0000  -0.0000
   6 C   :2pz    0.0000   0.7553  -0.0000   0.8236
   7 C   :2px   -0.0000   0.0000   0.9299   0.0000
   8 C   :2py    1.0963   0.0000   0.0000  -0.0000
   9 C   :2pz    0.0000  -0.6398  -0.0000  -1.0717
  10 C   :1s     0.0190   0.0000  -0.0000   0.0000
  11 C   :1s     0.2466  -0.0000   0.0000  -0.0000
  12 C   :1s     0.2688  -0.0000   0.0000  -0.0000
  13 C   :2px    0.0000  -0.0000  -0.4511  -0.0000
  14 C   :2py    0.5834  -0.0000  -0.0000   0.0000
  15 C   :2pz    0.0000   0.7553   0.0000  -0.8236
  16 C   :2px    0.0000  -0.0000   0.9299  -0.0000
  17 C   :2py   -1.0963  -0.0000   0.0000   0.0000
  18 C   :2pz    0.0000  -0.6398   0.0000   1.0717
  19 H   :1s    -0.0963   0.0000  -0.3858  -0.0000
  20 H   :1s    -0.1007   0.0000  -0.2050  -0.0000
  21 H   :1s    -0.0963   0.0000   0.3858   0.0000
  22 H   :1s    -0.1007   0.0000   0.2050   0.0000
  23 H   :1s    -0.0963   0.0000  -0.3858   0.0000
  24 H   :1s    -0.1007   0.0000  -0.2050   0.0000
  25 H   :1s    -0.0963   0.0000   0.3858  -0.0000
  26 H   :1s    -0.1007   0.0000   0.2050  -0.0000

  Total CPU  time used in SIRIUS :   0.03 seconds
  Total wall time used in SIRIUS :   0.27 seconds

 
     Date and time (Linux)  : Tue Mar 26 11:04:38 2024
     Host name              : node103                                 


                     .---------------------------------------.
                     | End of Wave Function Section (SIRIUS) |
                     `---------------------------------------'


 Center of mass dipole origin  :    0.000000    0.000000    0.000000

 Center of mass gauge origin   :    0.000000    0.000000    0.000000


                 .------------------------------------------------.
                 | Starting in Static Property Section (ABACUS) - |
                 `------------------------------------------------'


 
     Date and time (Linux)  : Tue Mar 26 11:04:38 2024
     Host name              : node103                                 
  Total CPU  time used in TWOINT:   0.02 seconds
  Total wall time used in TWOINT:   0.02 seconds


   ***************************************************************************
   ************************ FINAL RESULTS from ABACUS ************************
   ***************************************************************************


 
     Date and time (Linux)  : Tue Mar 26 11:04:38 2024
     Host name              : node103                                 


                             Molecular geometry (au)
                             -----------------------

 C          0.0000000000            1.2491381939            0.0000000000
 C          0.0000000000           -1.2491381939            0.0000000000
 H          1.7224727312            2.3225293999            0.0000000000
 H         -1.7224727312            2.3225293999            0.0000000000
 H          1.7224727312           -2.3225293999            0.0000000000
 H         -1.7224727312           -2.3225293999            0.0000000000





                        Molecular wave function and energy
                        ----------------------------------

     Spatial symmetry   1 ( A   )
     Spin multiplicity  1
     2 * M_S            0
     State number       1
     Total charge       0

     Total energy        -78.0044557835 au (Hartrees)
                         -2122.60921641 eV
                           -204800.6671 kJ/mol
                            -48948.5342 kcal/mol


                   Scalar Breit-Pauli relativistic corrections
                   -------------------------------------------

     Darwin correction:                          0.1189478206 au
     Mass-velocity correction:                  -0.1481899210 au

     Total relativistic correction:             -0.0292421004 au ( 0.0375%)
     Non-relativistic + relativistic energy:   -78.0336978839 au



      (Note that these corrections are NOT included in the results below.)


                             Molecular gradient (au)
                             -----------------------

 C          0.0000000000           -0.0000006113           -0.0000000000
 C         -0.0000000000            0.0000006113            0.0000000000
 H          0.0000071380           -0.0000024723           -0.0000000000
 H         -0.0000071380           -0.0000024723            0.0000000000
 H          0.0000071380            0.0000024723           -0.0000000000
 H         -0.0000071380            0.0000024723            0.0000000000





                                  Dipole moment
                                  -------------

                 au               Debye          C m (/(10**-30)
              0.000000           0.000000           0.000000


                             Dipole moment components
                             ------------------------

                 au               Debye          C m (/(10**-30)

      x     -0.00000000        -0.00000000        -0.00000000
      y     -0.00000000        -0.00000000        -0.00000000
      z     -0.00000000        -0.00000000        -0.00000000


   Units:   1 a.u. =   2.54175 Debye 
            1 a.u. =   8.47835 (10**-30) C m (SI)




   Interatomic separations (in Angstrom):
   --------------------------------------

            C           C           H           H           H           H     
            ------      ------      ------      ------      ------      ------
 C     :    0.000000
 C     :    1.322031    0.000000
 H     :    1.073993    2.098354    0.000000
 H     :    1.073993    2.098354    1.822987    0.000000
 H     :    2.098354    1.073993    2.458059    3.060284    0.000000
 H     :    2.098354    1.073993    3.060284    2.458059    1.822987    0.000000


  Max    interatomic separation is    3.0603 Angstrom (    5.7831 Bohr)
  between atoms    5 and    4, "H     " and "H     ".

  Min HX interatomic separation is    1.0740 Angstrom (    2.0296 Bohr)

  Min YX interatomic separation is    1.3220 Angstrom (    2.4983 Bohr)


  Bond distances (Angstrom):
  --------------------------

                  atom 1     atom 2       distance
                  ------     ------       --------
  bond distance:  C          C            1.322031
  bond distance:  H          C            1.073993
  bond distance:  H          C            1.073993
  bond distance:  H          C            1.073993
  bond distance:  H          C            1.073993


  Bond angles (degrees):
  ----------------------

                  atom 1     atom 2     atom 3         angle
                  ------     ------     ------         -----
  bond angle:     C          C          H            121.930
  bond angle:     C          C          H            121.930
  bond angle:     H          C          H            116.140
  bond angle:     C          C          H            121.930
  bond angle:     C          C          H            121.930
  bond angle:     H          C          H            116.140


  Total CPU  time used in ABACUS:   0.03 seconds
  Total wall time used in ABACUS:   0.03 seconds


                   .-------------------------------------------.
                   | End of Static Property Section (ABACUS) - |
                   `-------------------------------------------'


Building simple model Hessian by Roland Lindh ...

Initial model Hessian in internal coordinates has been calculated


           :::::::::::::::::::::::::::::::::::::::::::::::::::::::::::
           ::::::::::::::: Optimization Control Center :::::::::::::::
           :::::::::::::::::::::::::::::::::::::::::::::::::::::::::::



                                Next geometry (au)
                                ------------------

 C         -0.0000000000            1.2491415233           -0.0000000000
 C          0.0000000000           -1.2491415233           -0.0000000000
 H          1.7224457260            2.3225579959           -0.0000000000
 H         -1.7224457260            2.3225579959           -0.0000000000
 H          1.7224457260           -2.3225579959           -0.0000000000
 H         -1.7224457260           -2.3225579959           -0.0000000000





   Interatomic separations (in Angstrom):
   --------------------------------------

            C           C           H           H           H           H     
            ------      ------      ------      ------      ------      ------
 C     :    0.000000
 C     :    1.322034    0.000000
 H     :    1.073988    2.098363    0.000000
 H     :    1.073988    2.098363    1.822958    0.000000
 H     :    2.098363    1.073988    2.458090    3.060291    0.000000
 H     :    2.098363    1.073988    3.060291    2.458090    1.822958    0.000000


  Max    interatomic separation is    3.0603 Angstrom (    5.7831 Bohr)
  between atoms    5 and    4, "H     " and "H     ".

  Min HX interatomic separation is    1.0740 Angstrom (    2.0295 Bohr)

  Min YX interatomic separation is    1.3220 Angstrom (    2.4983 Bohr)


  Bond distances (Angstrom):
  --------------------------

                  atom 1     atom 2       distance
                  ------     ------       --------
  bond distance:  C          C            1.322034
  bond distance:  H          C            1.073988
  bond distance:  H          C            1.073988
  bond distance:  H          C            1.073988
  bond distance:  H          C            1.073988


  Bond angles (degrees):
  ----------------------

                  atom 1     atom 2     atom 3         angle
                  ------     ------     ------         -----
  bond angle:     C          C          H            121.931
  bond angle:     C          C          H            121.931
  bond angle:     H          C          H            116.138
  bond angle:     C          C          H            121.931
  bond angle:     C          C          H            121.931
  bond angle:     H          C          H            116.138




                             Optimization information
                             ------------------------

 Iteration number               :       0
 End of optimization            :       F 
 Energy at this geometry is     :     -78.004455783515
 Norm of gradient               :       0.000015132776
 Norm of step                   :       0.000105459636
 Updated trust radius           :       0.500000000000
 Total effective Hessian index  :       0




 **************************************************************************************
 ****************** Output of molecule and basis set info suppressed ******************
 **************************************************************************************



                     .---------------------------------------.
                     | Starting in Integral Section (HERMIT) |
                     `---------------------------------------'



 ***************************************************************************************
 ****************** Output from **INTEGRALS input processing (HERMIT) ******************
 ***************************************************************************************


 - Using defaults, no **INTEGRALS input found

 Default print level:       -1

 Calculation of one- and two-electron Hamiltonian integrals.

 Center of mass  (bohr):     -0.000000000000     -0.000000000000      0.000000000000
 Operator center (bohr):      0.000000000000      0.000000000000      0.000000000000
 Gauge origin    (bohr):      0.000000000000      0.000000000000      0.000000000000
 Dipole origin   (bohr):      0.000000000000      0.000000000000      0.000000000000


                      Nuclear contribution to dipole moments
                      --------------------------------------

                 au               Debye          C m (/(10**-30)

      x     -0.00000000        -0.00000000        -0.00000000
      y     -0.00000000        -0.00000000        -0.00000000
      z      0.00000000         0.00000000         0.00000000


  Total CPU  time used in HERMIT:   0.01 seconds
  Total wall time used in HERMIT:   0.01 seconds


                        .----------------------------------.
                        | End of Integral Section (HERMIT) |
                        `----------------------------------'



                   .--------------------------------------------.
                   | Starting in Wave Function Section (SIRIUS) |
                   `--------------------------------------------'

* Read MO coefficients from SIRIUS.RST with label "NEWORB  " and header info: 26Mar24  FOCKDIIS

 **********************************************************************
 *SIRIUS* a direct, restricted step, second order MCSCF program       *
 **********************************************************************

 (Wave function specification suppressed here, see output above for initial geometry.)


 ***********************************************
 ***** DIIS acceleration of SCF iterations *****
 ***********************************************

 C1-DIIS algorithm; max error vectors =    8

 Iter      Total energy        Error norm    Delta(E)  DIIS dim.
 -----------------------------------------------------------------------------

Calculating AOSUPINT

---> (Re)generating AOTWOINT

 Threshold for neglecting two-electron integrals:  1.00D-12
 HERMIT - Number of two-electron integrals written:       34472 ( 55.8% )
 HERMIT - Megabytes written:                              0.398

  Total CPU  time used in TWOINT:   0.01 seconds
  Total wall time used in TWOINT:   0.01 seconds
     (Precalculated AO two-electron integrals are transformed to P-supermatrix elements.
      Threshold for discarding integrals :  1.00D-12 )

@  1    -78.0044557842        2.23283D-05   -6.37D-10    1
      Virial theorem: -V/T =      1.998782
@    MULPOP   C      -0.33; C      -0.33; H       0.16; H       0.16; H       0.16; H       0.16; 
 -----------------------------------------------------------------------------
@  2    -78.0044557842        4.93578D-06   -4.77D-11    2

@ *** DIIS converged in   2 iterations !
@     Converged SCF energy, gradient:    -78.004455784200    4.94D-06
    - total time used in SIRFCK :              0.00 seconds


 *** SCF orbital energy analysis ***

 Number of electrons        :   16
 Closed shell orbitals      :    8

 Sym       Hartree-Fock orbital energies

1 A     -11.22881740   -11.22706977    -1.03855319    -0.79207728    -0.64381508
         -0.58859621    -0.49950174    -0.37458343     0.17727894     0.26571776
          0.29105485     0.30937884     0.39205072     0.49278419     0.67531532
          0.78278060     0.78292832     0.89165292     0.89437214     1.00245318
          1.15741571     1.19600154     1.24337968     1.25367936     1.38982186
          1.52139957

    E(LUMO) :     0.17727894 au (symmetry 1)
  - E(HOMO) :    -0.37458343 au (symmetry 1)
  ------------------------------------------
    gap     :     0.55186237 au

 --- Writing SIRIFC interface file

--------------------------------------------------------------------------------


     .--------------------------------------------------.
     | HF-SCF KT IPs [a.u. & eV] from Koopmans' theorem |
     `--------------------------------------------------'


     HF-SCF KT symmetry 1 ( A  ) in point group C1  -- 8 principal poles with pole strength 1

   ============  ============  ============  ============  ============
      11.228817     11.227070      1.038553      0.792077      0.643815
     305.551664    305.504109     28.260470     21.553519     17.519100
   ============  ============  ============  ============  ============

   ============  ============  ============
       0.588596      0.499502      0.374583
      16.016518     13.592134     10.192934
   ============  ============  ============

@ Summary of HF-SCF KT ionization potentials [eV]:

@ Symmetry 1 (A  ) :   305.552     305.504      28.260      21.554      17.519
@                       16.017      13.592      10.193

  === End of HF-SCF KT output ===
--------------------------------------------------------------------------------


 CPU and wall time for SCF :       0.016       0.062


                       .-----------------------------------.
                       | --- Final results from SIRIUS --- |
                       `-----------------------------------'


@    Spin multiplicity:           1
@    Spatial symmetry:            1 ( irrep  A   in C1  )
@    Total charge of molecule:    0

@    Final HF energy:             -78.004455784200                 
@    Nuclear repulsion:            33.644643430188
@    Electronic energy:          -111.649099214389

@    Final gradient norm:           0.000004935776

 
     Date and time (Linux)  : Tue Mar 26 11:04:38 2024
     Host name              : node103                                 

  Total CPU  time used in SIRIUS :   0.02 seconds
  Total wall time used in SIRIUS :   0.08 seconds

 
     Date and time (Linux)  : Tue Mar 26 11:04:38 2024
     Host name              : node103                                 


                     .---------------------------------------.
                     | End of Wave Function Section (SIRIUS) |
                     `---------------------------------------'

 Trust radius increased due to good ratio.
 Updated trust radius   0.50000

 Center of mass dipole origin  :   -0.000000   -0.000000    0.000000

 Center of mass gauge origin   :   -0.000000   -0.000000    0.000000


                 .------------------------------------------------.
                 | Starting in Static Property Section (ABACUS) - |
                 `------------------------------------------------'


 
     Date and time (Linux)  : Tue Mar 26 11:04:38 2024
     Host name              : node103                                 


   ***************************************************************************
   ************************ FINAL RESULTS from ABACUS ************************
   ***************************************************************************


 
     Date and time (Linux)  : Tue Mar 26 11:04:38 2024
     Host name              : node103                                 
  Total CPU  time used in ABACUS:   0.03 seconds
  Total wall time used in ABACUS:   0.03 seconds


                   .-------------------------------------------.
                   | End of Static Property Section (ABACUS) - |
                   `-------------------------------------------'



            *********************************************************
            *** Output from geometry convergence control (MINEND) ***
            *********************************************************


 Energy converged       yes 
 Gradient converged     yes 
 Step converged         yes 
 Conditions fullfilled   3
 Required conditions     2
 Totally sym. index      0
 Hessian index           0
 End of optimization    yes 


           :::::::::::::::::::::::::::::::::::::::::::::::::::::::::::
           ::::::::::::::: Optimization Control Center :::::::::::::::
           :::::::::::::::::::::::::::::::::::::::::::::::::::::::::::



                               Final geometry (au)
                               -------------------

 C         -0.0000000000            1.2491415233            0.0000000000
 C          0.0000000000           -1.2491415233            0.0000000000
 H          1.7224457260            2.3225579959            0.0000000000
 H         -1.7224457260            2.3225579959            0.0000000000
 H          1.7224457260           -2.3225579959            0.0000000000
 H         -1.7224457260           -2.3225579959            0.0000000000





                             Optimization information
                             ------------------------

 Iteration number               :       1
 End of optimization            :       T 
 Energy at this geometry is     :     -78.004455784200
 Energy change from last geom.  :      -0.000000000685
 Predicted change               :      -0.000000000529
 Ratio, actual/predicted change :       1.295304971511
 Norm of gradient               :       0.000008144467
 Norm of step                   :       0.000048807663
 Updated trust radius           :       0.500000000000
 Total effective Hessian index  :       0




          <<<<<<<<<<<<<<<<<<<<<<<<<<<<<<<<<<<<<<<<<<<<<<<<<<<<<<<<<<<<<<
          <<<<<<<<<<<<<<<<<<<<  End of Optimization <<<<<<<<<<<<<<<<<<<<
          <<<<<<<<<<<<<<<<<<<<<<<<<<<<<<<<<<<<<<<<<<<<<<<<<<<<<<<<<<<<<<



                              Final geometry (bohr)
                              ---------------------

 C         -0.0000000000            1.2491415233            0.0000000000
 C          0.0000000000           -1.2491415233            0.0000000000
 H          1.7224457260            2.3225579959            0.0000000000
 H         -1.7224457260            2.3225579959            0.0000000000
 H          1.7224457260           -2.3225579959            0.0000000000
 H         -1.7224457260           -2.3225579959            0.0000000000





                      Final geometry (xyz format; angstrom)
                      -------------------------------------

6

C       -0.0000000000            0.6610172272            0.0000000000
C        0.0000000000           -0.6610172272            0.0000000000
H        0.9114790250            1.2290447622            0.0000000000
H       -0.9114790250            1.2290447622            0.0000000000
H        0.9114790250           -1.2290447622            0.0000000000
H       -0.9114790250           -1.2290447622            0.0000000000



@ Iter     Energy        Change       GradNorm  Index   StepLen    TrustRad #Rej
@ ------------------------------------------------------------------------------
@   0      -78.004456     0.000000     0.000015    0    0.000105*   0.500000   0 
@   1      -78.004456    -0.000000     0.000008    0    0.000049*   0.500000   0 

@  *) Newton step taken.


   Interatomic separations (in Angstrom):
   --------------------------------------

            C           C           H           H           H           H     
            ------      ------      ------      ------      ------      ------
 C     :    0.000000
 C     :    1.322034    0.000000
 H     :    1.073988    2.098363    0.000000
 H     :    1.073988    2.098363    1.822958    0.000000
 H     :    2.098363    1.073988    2.458090    3.060291    0.000000
 H     :    2.098363    1.073988    3.060291    2.458090    1.822958    0.000000


  Max    interatomic separation is    3.0603 Angstrom (    5.7831 Bohr)
  between atoms    5 and    4, "H     " and "H     ".

  Min HX interatomic separation is    1.0740 Angstrom (    2.0295 Bohr)

  Min YX interatomic separation is    1.3220 Angstrom (    2.4983 Bohr)


  Bond distances (Angstrom):
  --------------------------

                  atom 1     atom 2       distance
                  ------     ------       --------
  bond distance:  C          C            1.322034
  bond distance:  H          C            1.073988
  bond distance:  H          C            1.073988
  bond distance:  H          C            1.073988
  bond distance:  H          C            1.073988


  Bond angles (degrees):
  ----------------------

                  atom 1     atom 2     atom 3         angle
                  ------     ------     ------         -----
  bond angle:     C          C          H            121.931
  bond angle:     C          C          H            121.931
  bond angle:     H          C          H            116.138
  bond angle:     C          C          H            121.931
  bond angle:     C          C          H            121.931
  bond angle:     H          C          H            116.138



@ Geometry converged in  2 iterations!

@ Energy at final geometry is       :     -78.004456 a.u.
@ Energy change during optimization :      -0.000000 a.u.
@                                             -0.000 kJ/mol
 

 Center of mass dipole origin  :   -0.000000   -0.000000    0.000000

 Center of mass gauge origin   :   -0.000000   -0.000000    0.000000


                 .------------------------------------------------.
                 | Starting in Static Property Section (ABACUS) - |
                 `------------------------------------------------'


 
     Date and time (Linux)  : Tue Mar 26 11:04:38 2024
     Host name              : node103                                 


   ***************************************************************************
   ************************ FINAL RESULTS from ABACUS ************************
   ***************************************************************************


 
     Date and time (Linux)  : Tue Mar 26 11:04:38 2024
     Host name              : node103                                 


                             Molecular geometry (au)
                             -----------------------

 C         -0.0000000000            1.2491415233            0.0000000000
 C          0.0000000000           -1.2491415233            0.0000000000
 H          1.7224457260            2.3225579959            0.0000000000
 H         -1.7224457260            2.3225579959            0.0000000000
 H          1.7224457260           -2.3225579959            0.0000000000
 H         -1.7224457260           -2.3225579959            0.0000000000





                        Molecular wave function and energy
                        ----------------------------------

     Spatial symmetry   1 ( A   )
     Spin multiplicity  1
     2 * M_S            0
     State number       1
     Total charge       0

     Total energy        -78.0044557842 au (Hartrees)
                         -2122.60921643 eV
                           -204800.6671 kJ/mol
                            -48948.5342 kcal/mol


                   Scalar Breit-Pauli relativistic corrections
                   -------------------------------------------

     Darwin correction:                          0.1189478191 au
     Mass-velocity correction:                  -0.1481899185 au

     Total relativistic correction:             -0.0292420994 au ( 0.0375%)
     Non-relativistic + relativistic energy:   -78.0336978836 au



      (Note that these corrections are NOT included in the results below.)


                                  Dipole moment
                                  -------------

                 au               Debye          C m (/(10**-30)
              0.000000           0.000000           0.000000


                             Dipole moment components
                             ------------------------

                 au               Debye          C m (/(10**-30)

      x     -0.00000000        -0.00000000        -0.00000000
      y     -0.00000000        -0.00000000        -0.00000000
      z     -0.00000000        -0.00000000        -0.00000000


   Units:   1 a.u. =   2.54175 Debye 
            1 a.u. =   8.47835 (10**-30) C m (SI)




   Interatomic separations (in Angstrom):
   --------------------------------------

            C           C           H           H           H           H     
            ------      ------      ------      ------      ------      ------
 C     :    0.000000
 C     :    1.322034    0.000000
 H     :    1.073988    2.098363    0.000000
 H     :    1.073988    2.098363    1.822958    0.000000
 H     :    2.098363    1.073988    2.458090    3.060291    0.000000
 H     :    2.098363    1.073988    3.060291    2.458090    1.822958    0.000000


  Max    interatomic separation is    3.0603 Angstrom (    5.7831 Bohr)
  between atoms    5 and    4, "H     " and "H     ".

  Min HX interatomic separation is    1.0740 Angstrom (    2.0295 Bohr)

  Min YX interatomic separation is    1.3220 Angstrom (    2.4983 Bohr)


  Bond distances (Angstrom):
  --------------------------

                  atom 1     atom 2       distance
                  ------     ------       --------
  bond distance:  C          C            1.322034
  bond distance:  H          C            1.073988
  bond distance:  H          C            1.073988
  bond distance:  H          C            1.073988
  bond distance:  H          C            1.073988


  Bond angles (degrees):
  ----------------------

                  atom 1     atom 2     atom 3         angle
                  ------     ------     ------         -----
  bond angle:     C          C          H            121.931
  bond angle:     C          C          H            121.931
  bond angle:     H          C          H            116.138
  bond angle:     C          C          H            121.931
  bond angle:     C          C          H            121.931
  bond angle:     H          C          H            116.138


  Total CPU  time used in ABACUS:   0.00 seconds
  Total wall time used in ABACUS:   0.00 seconds


                   .-------------------------------------------.
                   | End of Static Property Section (ABACUS) - |
                   `-------------------------------------------'

  Total CPU  time used in DALTON:   0.17 seconds
  Total wall time used in DALTON:   0.84 seconds

 
     Date and time (Linux)  : Tue Mar 26 11:04:38 2024
     Host name              : node103                                 
