[Molden Format]
[GTO]
    1 0
 s  10 1.00
    3047.5249000    0.0018347000
     457.3695100    0.0140373000
     103.9486900    0.0688426000
      29.2101550    0.2321844000
       9.2866630    0.4679413000
       3.1639270    0.3623120000
       7.8682724    0.0000000000
       1.8812885    0.0000000000
       0.5442493    0.0000000000
       0.1687144    0.0000000000
 s  10 1.00
    3047.5249000    0.0000000000
     457.3695100    0.0000000000
     103.9486900    0.0000000000
      29.2101550    0.0000000000
       9.2866630    0.0000000000
       3.1639270    0.0000000000
       7.8682724   -0.1193324000
       1.8812885   -0.1608542000
       0.5442493    1.1434564000
       0.1687144    0.0000000000
 s  10 1.00
    3047.5249000    0.0000000000
     457.3695100    0.0000000000
     103.9486900    0.0000000000
      29.2101550    0.0000000000
       9.2866630    0.0000000000
       3.1639270    0.0000000000
       7.8682724    0.0000000000
       1.8812885    0.0000000000
       0.5442493    0.0000000000
       0.1687144    1.0000000000
 p   4 1.00
       7.8682724    0.0689991000
       1.8812885    0.3164240000
       0.5442493    0.7443083000
       0.1687144    0.0000000000
 p   4 1.00
       7.8682724    0.0000000000
       1.8812885    0.0000000000
       0.5442493    0.0000000000
       0.1687144    1.0000000000

    2 0
 s  10 1.00
    3047.5249000    0.0018347000
     457.3695100    0.0140373000
     103.9486900    0.0688426000
      29.2101550    0.2321844000
       9.2866630    0.4679413000
       3.1639270    0.3623120000
       7.8682724    0.0000000000
       1.8812885    0.0000000000
       0.5442493    0.0000000000
       0.1687144    0.0000000000
 s  10 1.00
    3047.5249000    0.0000000000
     457.3695100    0.0000000000
     103.9486900    0.0000000000
      29.2101550    0.0000000000
       9.2866630    0.0000000000
       3.1639270    0.0000000000
       7.8682724   -0.1193324000
       1.8812885   -0.1608542000
       0.5442493    1.1434564000
       0.1687144    0.0000000000
 s  10 1.00
    3047.5249000    0.0000000000
     457.3695100    0.0000000000
     103.9486900    0.0000000000
      29.2101550    0.0000000000
       9.2866630    0.0000000000
       3.1639270    0.0000000000
       7.8682724    0.0000000000
       1.8812885    0.0000000000
       0.5442493    0.0000000000
       0.1687144    1.0000000000
 p   4 1.00
       7.8682724    0.0689991000
       1.8812885    0.3164240000
       0.5442493    0.7443083000
       0.1687144    0.0000000000
 p   4 1.00
       7.8682724    0.0000000000
       1.8812885    0.0000000000
       0.5442493    0.0000000000
       0.1687144    1.0000000000

    3 0
 s   4 1.00
      18.7311370    0.0334946000
       2.8253937    0.2347269500
       0.6401217    0.8137573300
       0.1612778    0.0000000000
 s   4 1.00
      18.7311370    0.0000000000
       2.8253937    0.0000000000
       0.6401217    0.0000000000
       0.1612778    1.0000000000

    4 0
 s   4 1.00
      18.7311370    0.0334946000
       2.8253937    0.2347269500
       0.6401217    0.8137573300
       0.1612778    0.0000000000
 s   4 1.00
      18.7311370    0.0000000000
       2.8253937    0.0000000000
       0.6401217    0.0000000000
       0.1612778    1.0000000000

    5 0
 s   4 1.00
      18.7311370    0.0334946000
       2.8253937    0.2347269500
       0.6401217    0.8137573300
       0.1612778    0.0000000000
 s   4 1.00
      18.7311370    0.0000000000
       2.8253937    0.0000000000
       0.6401217    0.0000000000
       0.1612778    1.0000000000

    6 0
 s   4 1.00
      18.7311370    0.0334946000
       2.8253937    0.2347269500
       0.6401217    0.8137573300
       0.1612778    0.0000000000
 s   4 1.00
      18.7311370    0.0000000000
       2.8253937    0.0000000000
       0.6401217    0.0000000000
       0.1612778    1.0000000000

[SCFCONV]
scf-first  1  THROUGH   8
      -77.7040999006
      -77.9875301964
      -78.0033985646
      -78.0044240155
      -78.0044554373
      -78.0044557799
      -78.0044557835
      -78.0044557835
[GEOMETRIES] XYZ
    6

C              0.0000000000         0.6610154654         0.0000000000
C              0.0000000000        -0.6610154654         0.0000000000
H              0.9114933156         1.2290296298         0.0000000000
H             -0.9114933156         1.2290296298         0.0000000000
H              0.9114933156        -1.2290296298         0.0000000000
H             -0.9114933156        -1.2290296298         0.0000000000
    6

C              0.0000000000         0.6610154654         0.0000000000
C              0.0000000000        -0.6610154654         0.0000000000
H              0.9114933156         1.2290296298         0.0000000000
H             -0.9114933156         1.2290296298         0.0000000000
H              0.9114933156        -1.2290296298         0.0000000000
H             -0.9114933156        -1.2290296298         0.0000000000
    6

C             -0.0000000000         0.6610172272         0.0000000000
C              0.0000000000        -0.6610172272         0.0000000000
H              0.9114790250         1.2290447622         0.0000000000
H             -0.9114790250         1.2290447622         0.0000000000
H              0.9114790250        -1.2290447622         0.0000000000
H             -0.9114790250        -1.2290447622         0.0000000000
[GEOCONV]
energy
      -78.0044557835
      -78.0044557835
      -78.0044557842
[TITLE]
*** Dalton interface to Molden, wave function type : HF            26Mar24   11:
[Atoms] AU
C          1     6        -0.0000000000         1.2491415233         0.000000000
C          2     6         0.0000000000        -1.2491415233         0.000000000
H          3     1         1.7224457260         2.3225579959         0.000000000
H          4     1        -1.7224457260         2.3225579959         0.000000000
H          5     1         1.7224457260        -2.3225579959         0.000000000
H          6     1        -1.7224457260        -2.3225579959         0.000000000
[5D7F]
[9G]
[MO]
Sym= A
Ene=  -11.2288
Spin= Alpha
Occup=  2.0000
    1        0.704154
    2        0.016786
    3       -0.006911
    5        0.000086
    8       -0.000800
   10        0.704154
   11        0.016786
   12       -0.006911
   14       -0.000086
   17        0.000800
   19       -0.000268
   20        0.001979
   21       -0.000268
   22        0.001979
   23       -0.000268
   24        0.001979
   25       -0.000268
   26        0.001979
Sym= A
Ene=  -11.2271
Spin= Alpha
Occup=  2.0000
    1       -0.704586
    2       -0.018014
    3        0.015243
    5        0.000341
    8       -0.002940
   10        0.704586
   11        0.018014
   12       -0.015243
   14        0.000341
   17       -0.002940
   19        0.000034
   20       -0.001872
   21        0.000034
   22       -0.001872
   23       -0.000034
   24        0.001872
   25       -0.000034
   26        0.001872
Sym= A
Ene=   -1.0386
Spin= Alpha
Occup=  2.0000
    1        0.158187
    2       -0.311270
    3       -0.224037
    5        0.113942
    8        0.004043
   10        0.158187
   11       -0.311270
   12       -0.224037
   14       -0.113942
   17       -0.004043
   19       -0.084271
   20       -0.016014
   21       -0.084271
   22       -0.016014
   23       -0.084271
   24       -0.016014
   25       -0.084271
   26       -0.016014
Sym= A
Ene=   -0.7921
Spin= Alpha
Occup=  2.0000
    1        0.120875
    2       -0.242363
    3       -0.240377
    5       -0.166335
    8       -0.056430
   10       -0.120875
   11        0.242363
   12        0.240377
   14       -0.166335
   17       -0.056430
   19       -0.151572
   20       -0.068411
   21       -0.151572
   22       -0.068411
   23        0.151572
   24        0.068411
   25        0.151572
   26        0.068411
Sym= A
Ene=   -0.6438
Spin= Alpha
Occup=  2.0000
    4       -0.324172
    7       -0.126168
   13       -0.324172
   16       -0.126168
   19       -0.159122
   20       -0.106763
   21        0.159122
   22        0.106763
   23       -0.159122
   24       -0.106763
   25        0.159122
   26        0.106763
Sym= A
Ene=   -0.5886
Spin= Alpha
Occup=  2.0000
    1       -0.009701
    2        0.025679
    3       -0.018238
    5       -0.413024
    8       -0.145033
   10       -0.009701
   11        0.025679
   12       -0.018238
   14        0.413024
   17        0.145033
   19       -0.129271
   20       -0.100447
   21       -0.129271
   22       -0.100447
   23       -0.129271
   24       -0.100447
   25       -0.129271
   26       -0.100447
Sym= A
Ene=   -0.4995
Spin= Alpha
Occup=  2.0000
    4       -0.307425
    7       -0.201808
   13        0.307425
   16        0.201808
   19       -0.197845
   20       -0.151958
   21        0.197845
   22        0.151958
   23        0.197845
   24        0.151958
   25       -0.197845
   26       -0.151958
Sym= A
Ene=   -0.3746
Spin= Alpha
Occup=  2.0000
    6       -0.377386
    9       -0.307046
   15       -0.377386
   18       -0.307046
Sym= A
Ene=    0.1773
Spin= Alpha
Occup=  0.0000
    6        0.346287
    9        0.748314
   15       -0.346287
   18       -0.748314
Sym= A
Ene=    0.2657
Spin= Alpha
Occup=  0.0000
    1       -0.076759
    2        0.077560
    3        1.506587
    5        0.143392
    8        0.655165
   10       -0.076759
   11        0.077560
   12        1.506587
   14       -0.143392
   17       -0.655165
   19       -0.014313
   20       -1.047106
   21       -0.014313
   22       -1.047106
   23       -0.014313
   24       -1.047106
   25       -0.014313
   26       -1.047106
Sym= A
Ene=    0.2911
Spin= Alpha
Occup=  0.0000
    4        0.254317
    7        0.813239
   13        0.254317
   16        0.813239
   19       -0.046339
   20       -1.113643
   21        0.046339
   22        1.113643
   23       -0.046339
   24       -1.113643
   25        0.046339
   26        1.113643
Sym= A
Ene=    0.3094
Spin= Alpha
Occup=  0.0000
    1        0.106929
    2       -0.099156
    3       -1.939487
    5       -0.097716
    8       -0.162234
   10       -0.106929
   11        0.099156
   12        1.939487
   14       -0.097716
   17       -0.162234
   19        0.016065
   20        1.081221
   21        0.016065
   22        1.081221
   23       -0.016065
   24       -1.081221
   25       -0.016065
   26       -1.081221
Sym= A
Ene=    0.3921
Spin= Alpha
Occup=  0.0000
    4       -0.250907
    7       -1.910878
   13        0.250907
   16        1.910878
   19       -0.042633
   20        1.646343
   21        0.042633
   22       -1.646343
   23        0.042633
   24       -1.646343
   25       -0.042633
   26        1.646343
Sym= A
Ene=    0.4928
Spin= Alpha
Occup=  0.0000
    1        0.068372
    2       -0.010398
    3       -3.170356
    5        0.138603
    8        3.048724
   10       -0.068372
   11        0.010398
   12        3.170356
   14        0.138603
   17        3.048724
   19       -0.078927
   20       -0.605054
   21       -0.078927
   22       -0.605054
   23        0.078927
   24        0.605054
   25        0.078927
   26        0.605054
Sym= A
Ene=    0.6753
Spin= Alpha
Occup=  0.0000
    1        0.018989
    2        0.246652
    3        0.268778
    5       -0.583443
    8        1.096311
   10        0.018989
   11        0.246652
   12        0.268778
   14        0.583443
   17       -1.096311
   19       -0.096246
   20       -0.100686
   21       -0.096246
   22       -0.100686
   23       -0.096246
   24       -0.100686
   25       -0.096246
   26       -0.100686
Sym= A
Ene=    0.7828
Spin= Alpha
Occup=  0.0000
    6        0.755270
    9       -0.639828
   15        0.755270
   18       -0.639828
Sym= A
Ene=    0.7829
Spin= Alpha
Occup=  0.0000
    4       -0.451076
    7        0.929833
   13       -0.451076
   16        0.929833
   19       -0.385753
   20       -0.205007
   21        0.385753
   22        0.205007
   23       -0.385753
   24       -0.205007
   25        0.385753
   26        0.205007
Sym= A
Ene=    0.8917
Spin= Alpha
Occup=  0.0000
    6        0.823627
    9       -1.071748
   15       -0.823627
   18        1.071748
Sym= A
Ene=    0.8944
Spin= Alpha
Occup=  0.0000
    1        0.026158
    2        0.980686
    3       -1.666185
    5       -0.021227
    8       -0.413023
   10        0.026158
   11        0.980686
   12       -1.666185
   14        0.021227
   17        0.413023
   19        0.418496
   20        0.309255
   21        0.418496
   22        0.309255
   23        0.418496
   24        0.309255
   25        0.418496
   26        0.309255
Sym= A
Ene=    1.0025
Spin= Alpha
Occup=  0.0000
    1        0.094295
    2        0.159203
    3       -1.436136
    5        0.678799
    8       -0.263910
   10       -0.094295
   11       -0.159203
   12        1.436136
   14        0.678799
   17       -0.263910
   19        0.422088
   20        0.117729
   21        0.422088
   22        0.117729
   23       -0.422088
   24       -0.117729
   25       -0.422088
   26       -0.117729
Sym= A
Ene=    1.1574
Spin= Alpha
Occup=  0.0000
    4       -0.926725
    7        2.969201
   13        0.926725
   16       -2.969201
   19        0.151065
   20       -1.520740
   21       -0.151065
   22        1.520740
   23       -0.151065
   24        1.520740
   25        0.151065
   26       -1.520740
Sym= A
Ene=    1.1960
Spin= Alpha
Occup=  0.0000
    4       -0.697170
    7        0.925799
   13       -0.697170
   16        0.925799
   19        0.545238
   20       -1.035688
   21       -0.545238
   22        1.035688
   23        0.545238
   24       -1.035688
   25       -0.545238
   26        1.035688
Sym= A
Ene=    1.2434
Spin= Alpha
Occup=  0.0000
    1       -0.034255
    2        1.010153
    3       -1.568896
    5        0.338288
    8       -0.383191
   10       -0.034255
   11        1.010153
   12       -1.568896
   14       -0.338288
   17        0.383191
   19       -0.519113
   20        0.831660
   21       -0.519113
   22        0.831660
   23       -0.519113
   24        0.831660
   25       -0.519113
   26        0.831660
Sym= A
Ene=    1.2537
Spin= Alpha
Occup=  0.0000
    1        0.027498
    2       -0.921950
    3        2.017580
    5       -0.550133
    8        0.559078
   10       -0.027498
   11        0.921950
   12       -2.017580
   14       -0.550133
   17        0.559078
   19        0.468771
   20       -1.015068
   21        0.468771
   22       -1.015068
   23       -0.468771
   24        1.015068
   25       -0.468771
   26        1.015068
Sym= A
Ene=    1.3898
Spin= Alpha
Occup=  0.0000
    1       -0.014599
    2       -1.444769
    3        4.924372
    5        0.566465
    8       -2.057097
   10        0.014599
   11        1.444769
   12       -4.924372
   14        0.566465
   17       -2.057097
   19       -0.291703
   20       -0.054822
   21       -0.291703
   22       -0.054822
   23        0.291703
   24        0.054822
   25        0.291703
   26        0.054822
Sym= A
Ene=    1.5214
Spin= Alpha
Occup=  0.0000
    4        0.041743
    7       -2.648956
   13       -0.041743
   16        2.648956
   19        0.770939
   20        0.684424
   21       -0.770939
   22       -0.684424
   23       -0.770939
   24       -0.684424
   25        0.770939
   26        0.684424
[End of Molden output from Dalton]
