[Molden Format]
[GTO]
    1 0
 s  10 1.00
    5484.6717000    0.0018311000
     825.2349500    0.0139501000
     188.0469600    0.0684451000
      52.9645000    0.2327143000
      16.8975700    0.4701930000
       5.7996353    0.3585209000
      15.5396160    0.0000000000
       3.5999336    0.0000000000
       1.0137618    0.0000000000
       0.2700058    0.0000000000
 s  10 1.00
    5484.6717000    0.0000000000
     825.2349500    0.0000000000
     188.0469600    0.0000000000
      52.9645000    0.0000000000
      16.8975700    0.0000000000
       5.7996353    0.0000000000
      15.5396160   -0.1107775000
       3.5999336   -0.1480263000
       1.0137618    1.1307670000
       0.2700058    0.0000000000
 s  10 1.00
    5484.6717000    0.0000000000
     825.2349500    0.0000000000
     188.0469600    0.0000000000
      52.9645000    0.0000000000
      16.8975700    0.0000000000
       5.7996353    0.0000000000
      15.5396160    0.0000000000
       3.5999336    0.0000000000
       1.0137618    0.0000000000
       0.2700058    1.0000000000
 p   4 1.00
      15.5396160    0.0708743000
       3.5999336    0.3397528000
       1.0137618    0.7271586000
       0.2700058    0.0000000000
 p   4 1.00
      15.5396160    0.0000000000
       3.5999336    0.0000000000
       1.0137618    0.0000000000
       0.2700058    1.0000000000

    2 0
 s  10 1.00
    3047.5249000    0.0018347000
     457.3695100    0.0140373000
     103.9486900    0.0688426000
      29.2101550    0.2321844000
       9.2866630    0.4679413000
       3.1639270    0.3623120000
       7.8682724    0.0000000000
       1.8812885    0.0000000000
       0.5442493    0.0000000000
       0.1687144    0.0000000000
 s  10 1.00
    3047.5249000    0.0000000000
     457.3695100    0.0000000000
     103.9486900    0.0000000000
      29.2101550    0.0000000000
       9.2866630    0.0000000000
       3.1639270    0.0000000000
       7.8682724   -0.1193324000
       1.8812885   -0.1608542000
       0.5442493    1.1434564000
       0.1687144    0.0000000000
 s  10 1.00
    3047.5249000    0.0000000000
     457.3695100    0.0000000000
     103.9486900    0.0000000000
      29.2101550    0.0000000000
       9.2866630    0.0000000000
       3.1639270    0.0000000000
       7.8682724    0.0000000000
       1.8812885    0.0000000000
       0.5442493    0.0000000000
       0.1687144    1.0000000000
 p   4 1.00
       7.8682724    0.0689991000
       1.8812885    0.3164240000
       0.5442493    0.7443083000
       0.1687144    0.0000000000
 p   4 1.00
       7.8682724    0.0000000000
       1.8812885    0.0000000000
       0.5442493    0.0000000000
       0.1687144    1.0000000000

    3 0
 s  10 1.00
    3047.5249000    0.0018347000
     457.3695100    0.0140373000
     103.9486900    0.0688426000
      29.2101550    0.2321844000
       9.2866630    0.4679413000
       3.1639270    0.3623120000
       7.8682724    0.0000000000
       1.8812885    0.0000000000
       0.5442493    0.0000000000
       0.1687144    0.0000000000
 s  10 1.00
    3047.5249000    0.0000000000
     457.3695100    0.0000000000
     103.9486900    0.0000000000
      29.2101550    0.0000000000
       9.2866630    0.0000000000
       3.1639270    0.0000000000
       7.8682724   -0.1193324000
       1.8812885   -0.1608542000
       0.5442493    1.1434564000
       0.1687144    0.0000000000
 s  10 1.00
    3047.5249000    0.0000000000
     457.3695100    0.0000000000
     103.9486900    0.0000000000
      29.2101550    0.0000000000
       9.2866630    0.0000000000
       3.1639270    0.0000000000
       7.8682724    0.0000000000
       1.8812885    0.0000000000
       0.5442493    0.0000000000
       0.1687144    1.0000000000
 p   4 1.00
       7.8682724    0.0689991000
       1.8812885    0.3164240000
       0.5442493    0.7443083000
       0.1687144    0.0000000000
 p   4 1.00
       7.8682724    0.0000000000
       1.8812885    0.0000000000
       0.5442493    0.0000000000
       0.1687144    1.0000000000

    4 0
 s  10 1.00
    3047.5249000    0.0018347000
     457.3695100    0.0140373000
     103.9486900    0.0688426000
      29.2101550    0.2321844000
       9.2866630    0.4679413000
       3.1639270    0.3623120000
       7.8682724    0.0000000000
       1.8812885    0.0000000000
       0.5442493    0.0000000000
       0.1687144    0.0000000000
 s  10 1.00
    3047.5249000    0.0000000000
     457.3695100    0.0000000000
     103.9486900    0.0000000000
      29.2101550    0.0000000000
       9.2866630    0.0000000000
       3.1639270    0.0000000000
       7.8682724   -0.1193324000
       1.8812885   -0.1608542000
       0.5442493    1.1434564000
       0.1687144    0.0000000000
 s  10 1.00
    3047.5249000    0.0000000000
     457.3695100    0.0000000000
     103.9486900    0.0000000000
      29.2101550    0.0000000000
       9.2866630    0.0000000000
       3.1639270    0.0000000000
       7.8682724    0.0000000000
       1.8812885    0.0000000000
       0.5442493    0.0000000000
       0.1687144    1.0000000000
 p   4 1.00
       7.8682724    0.0689991000
       1.8812885    0.3164240000
       0.5442493    0.7443083000
       0.1687144    0.0000000000
 p   4 1.00
       7.8682724    0.0000000000
       1.8812885    0.0000000000
       0.5442493    0.0000000000
       0.1687144    1.0000000000

    5 0
 s  10 1.00
    3047.5249000    0.0018347000
     457.3695100    0.0140373000
     103.9486900    0.0688426000
      29.2101550    0.2321844000
       9.2866630    0.4679413000
       3.1639270    0.3623120000
       7.8682724    0.0000000000
       1.8812885    0.0000000000
       0.5442493    0.0000000000
       0.1687144    0.0000000000
 s  10 1.00
    3047.5249000    0.0000000000
     457.3695100    0.0000000000
     103.9486900    0.0000000000
      29.2101550    0.0000000000
       9.2866630    0.0000000000
       3.1639270    0.0000000000
       7.8682724   -0.1193324000
       1.8812885   -0.1608542000
       0.5442493    1.1434564000
       0.1687144    0.0000000000
 s  10 1.00
    3047.5249000    0.0000000000
     457.3695100    0.0000000000
     103.9486900    0.0000000000
      29.2101550    0.0000000000
       9.2866630    0.0000000000
       3.1639270    0.0000000000
       7.8682724    0.0000000000
       1.8812885    0.0000000000
       0.5442493    0.0000000000
       0.1687144    1.0000000000
 p   4 1.00
       7.8682724    0.0689991000
       1.8812885    0.3164240000
       0.5442493    0.7443083000
       0.1687144    0.0000000000
 p   4 1.00
       7.8682724    0.0000000000
       1.8812885    0.0000000000
       0.5442493    0.0000000000
       0.1687144    1.0000000000

    6 0
 s   4 1.00
      18.7311370    0.0334946000
       2.8253937    0.2347269500
       0.6401217    0.8137573300
       0.1612778    0.0000000000
 s   4 1.00
      18.7311370    0.0000000000
       2.8253937    0.0000000000
       0.6401217    0.0000000000
       0.1612778    1.0000000000

    7 0
 s   4 1.00
      18.7311370    0.0334946000
       2.8253937    0.2347269500
       0.6401217    0.8137573300
       0.1612778    0.0000000000
 s   4 1.00
      18.7311370    0.0000000000
       2.8253937    0.0000000000
       0.6401217    0.0000000000
       0.1612778    1.0000000000

    8 0
 s   4 1.00
      18.7311370    0.0334946000
       2.8253937    0.2347269500
       0.6401217    0.8137573300
       0.1612778    0.0000000000
 s   4 1.00
      18.7311370    0.0000000000
       2.8253937    0.0000000000
       0.6401217    0.0000000000
       0.1612778    1.0000000000

    9 0
 s   4 1.00
      18.7311370    0.0334946000
       2.8253937    0.2347269500
       0.6401217    0.8137573300
       0.1612778    0.0000000000
 s   4 1.00
      18.7311370    0.0000000000
       2.8253937    0.0000000000
       0.6401217    0.0000000000
       0.1612778    1.0000000000

   10 0
 s   4 1.00
      18.7311370    0.0334946000
       2.8253937    0.2347269500
       0.6401217    0.8137573300
       0.1612778    0.0000000000
 s   4 1.00
      18.7311370    0.0000000000
       2.8253937    0.0000000000
       0.6401217    0.0000000000
       0.1612778    1.0000000000

   11 0
 s   4 1.00
      18.7311370    0.0334946000
       2.8253937    0.2347269500
       0.6401217    0.8137573300
       0.1612778    0.0000000000
 s   4 1.00
      18.7311370    0.0000000000
       2.8253937    0.0000000000
       0.6401217    0.0000000000
       0.1612778    1.0000000000

[SCFCONV]
scf-first  1  THROUGH  13
     -228.8028731527
     -229.5510753515
     -229.6882745761
     -229.6972645302
     -229.6984027636
     -229.6985182040
     -229.6985366544
     -229.6985383009
     -229.6985384345
     -229.6985384554
     -229.6985384594
     -229.6985384599
     -229.6985384600
[FREQ]
   3360.74
   3328.82
   3292.49
   3270.23
   3213.69
   3205.01
   1889.85
   1821.71
   1643.28
   1636.36
   1598.39
   1577.61
   1558.12
   1394.14
   1237.47
   1224.96
   1160.75
   1116.75
   1094.02
    963.21
    892.65
    780.84
    459.55
    448.76
    238.22
    164.00
     17.90

[FR-COORD]
 O        -3.5448780740         5.4338730414         0.7632006941
 C        -2.7270353453         3.2874929721         0.5239854581
 C        -0.1137482346         2.6295125289        -0.0887615501
 C         1.7718821606         4.2775358009        -0.3906586343
 C         1.6291258461         7.1030527375        -0.1734810795
 H        -4.0015916662         1.7010752968         0.7731211349
 H         3.5994383984         3.5093697283        -0.8453678089
 H         0.5003480628         7.8921973127        -1.6905573434
 H         3.4959041564         7.9301620245        -0.2560393020
 H         0.7175532021         7.6736721155         1.5642976491
 H         0.2607115894         0.6452895014        -0.2979037923

[FR-NORM-COORD]
Vibration          1
           0.00002364           0.00005017          -0.00001805
          -0.00685613          -0.00447686           0.00145533
           0.01025512          -0.07417485          -0.00698439
           0.03789392          -0.00966148          -0.00897212
           0.00508285           0.00222485          -0.00155925
           0.05501849           0.05776061          -0.01108697
          -0.38750380           0.15712127           0.09552644
          -0.00093087           0.00264052          -0.00475123
          -0.05203909          -0.02516800           0.00226735
          -0.00989594           0.00866576           0.02249268
          -0.15721209           0.82322272           0.08706711
Vibration          2
          -0.00008646           0.00008754          -0.00000819
          -0.00285812          -0.00256024           0.00059837
           0.00926537          -0.03420046          -0.00428382
          -0.06413687           0.02553107           0.01587239
          -0.01779887          -0.00309183           0.00658758
           0.02659702           0.03002853          -0.00506233
           0.74180651          -0.30861614          -0.18340056
           0.01196717          -0.01212277           0.02485744
           0.15548342           0.06937409          -0.00614156
           0.04882586          -0.03326869          -0.09921674
          -0.08400291           0.42373869           0.04554885
Vibration          3
           0.00029529           0.00022757           0.00009281
          -0.00125631          -0.00140098           0.00020436
           0.00165150          -0.00271400          -0.00015244
          -0.01569175           0.00544639           0.00351793
           0.06708847           0.00250499          -0.05356940
           0.01105777           0.01451425          -0.00379533
           0.18037518          -0.07327140          -0.04888615
           0.03334574          -0.00866728          -0.00088185
          -0.51815522          -0.22258890           0.01384932
          -0.31959390           0.20252153           0.62932419
          -0.00839350           0.03820080           0.00425297
Vibration          4
           0.00003063          -0.00007158           0.00019362
           0.00081140           0.00103920          -0.00023248
          -0.00045369           0.00034328           0.00051071
           0.00551302          -0.00113725          -0.00189283
          -0.05414217          -0.00580879          -0.06633911
          -0.00888313          -0.01044322          -0.00031290
          -0.06618671           0.02726876           0.01179507
           0.37144665          -0.26333493           0.49820954
           0.48059804           0.20889252          -0.03788613
          -0.20430636           0.11288455           0.33541463
           0.00160515          -0.00788729          -0.00117993
Vibration          5
          -0.00010222           0.00086381           0.00005063
          -0.05176505          -0.06199010           0.01015994
           0.00127132           0.00732116           0.00017563
          -0.00013744           0.00019036           0.00002976
          -0.00192029           0.00095426          -0.00033593
           0.59881852           0.72842114          -0.11740263
          -0.00358129          -0.00023439           0.00085037
           0.01392109          -0.00954333           0.01862817
           0.00267550           0.00186205          -0.00016556
           0.00757449          -0.00422074          -0.01454493
           0.00793530          -0.09268912          -0.00758725
Vibration          6
          -0.00009823          -0.00008806           0.00004588
           0.00144781           0.00135494          -0.00032198
          -0.00074240           0.00032802           0.00026080
          -0.00197108          -0.00044216           0.00023664
          -0.00593832           0.04884157          -0.01142227
          -0.01431446          -0.01796233           0.00258589
           0.02507948          -0.00923491          -0.00731003
           0.37856129          -0.24866022           0.50936112
          -0.50103558          -0.20700193           0.01788741
           0.19647388          -0.10994312          -0.38852738
           0.00257103          -0.00212219          -0.00081122
Vibration          7
           0.04159650          -0.10705003          -0.01223775
          -0.07419083           0.17343123           0.02201147
          -0.06715087          -0.07511145           0.01028630
           0.06255675           0.07989398          -0.00828339
          -0.00602870          -0.01025023           0.00102751
           0.21002553          -0.06685655          -0.05124453
          -0.00469064          -0.12176232          -0.00813283
          -0.01936816          -0.00378481           0.01315798
           0.01840506          -0.07369830          -0.00608326
          -0.02001939           0.00793436          -0.01193391
           0.16534266          -0.04278367          -0.03971093
Vibration          8
           0.03086882          -0.06755781          -0.00853475
          -0.08085834           0.09785740           0.02046778
           0.14548457           0.07377402          -0.02701532
          -0.11510333          -0.11644429           0.01731517
           0.02050731           0.02107376          -0.00027219
           0.04773267          -0.01798505          -0.01052575
          -0.02885526           0.14312022           0.01635059
          -0.01598456          -0.02418130           0.00375130
          -0.01018456           0.08766468          -0.01648811
          -0.04184589          -0.06321682          -0.00601437
          -0.08392779           0.03876433           0.02341168
Vibration          9
           0.00229991          -0.00263105           0.00044593
          -0.00646631           0.00465640          -0.00014224
           0.01287604          -0.00000717          -0.00023747
          -0.00991871           0.00587466          -0.01546141
          -0.01040874          -0.01898557          -0.05420985
           0.00881463          -0.00975378           0.00007125
          -0.01586849          -0.02526731           0.01760650
          -0.24251472          -0.26067441           0.02028181
          -0.02111330           0.09576710           0.69602624
           0.43493889           0.35353780           0.07691968
          -0.03504234          -0.01110088           0.01610232
Vibration         10
           0.00327675          -0.00232371          -0.00111056
          -0.00384558           0.00934624           0.00160996
          -0.00138296          -0.01333567          -0.00101784
          -0.01243279           0.01826359           0.00552479
          -0.03805718          -0.06144387           0.01069135
           0.03890619          -0.02936029          -0.00944669
          -0.02346314          -0.00288626           0.00809522
           0.50887634           0.15466694          -0.28082923
          -0.27127145           0.52372630          -0.11071921
           0.38587677          -0.02793780           0.20742372
          -0.02749834          -0.01968833           0.00296863
Vibration         11
          -0.00142246          -0.02126410          -0.00032619
           0.03839371           0.01946399          -0.00769937
          -0.09624668           0.01590690           0.02253290
          -0.00201458          -0.08247338          -0.00713299
          -0.00664451           0.06469839          -0.00282444
          -0.08308563           0.13848992           0.02203863
           0.21521075           0.43687839          -0.01105308
           0.05620559          -0.26229543          -0.20469725
           0.05479512          -0.06127658           0.05367983
           0.14487711          -0.25642703           0.17277969
           0.42652014           0.13259609          -0.08562965
Vibration         12
          -0.00118441          -0.02865480          -0.00035335
           0.02945409           0.01923722          -0.00606995
          -0.04969826           0.01781886           0.01171547
           0.00493729          -0.05636105          -0.00292864
           0.02735209          -0.07705103          -0.00500108
          -0.15923029           0.19109184           0.03996965
           0.11282640           0.21462956          -0.01656837
          -0.07488360           0.41340960           0.30040456
          -0.11692252           0.26315275          -0.00120141
          -0.14126079           0.43132195          -0.24002021
           0.25484797           0.08846127          -0.04977884
Vibration         13
           0.00376522           0.07801491           0.00108413
          -0.04691820          -0.03378288           0.01019656
          -0.02692644          -0.00741880           0.00619527
          -0.00942313          -0.04527589          -0.00042391
           0.01304152          -0.00386074          -0.00283705
           0.59168728          -0.58370607          -0.15019540
           0.08608439           0.18603704          -0.00853747
          -0.03526561           0.06817585           0.06498858
          -0.01387994           0.06175476           0.01023584
          -0.03993051           0.07112420          -0.05029356
           0.18771957           0.03410375          -0.03975088
Vibration         14
           0.01127180          -0.02017188          -0.00293589
          -0.00439232           0.00305853          -0.00012881
          -0.03276778          -0.03115235           0.00489262
           0.01268603           0.05919113           0.00325859
           0.04612773          -0.03491967          -0.01465720
           0.01128004          -0.01591223          -0.00131432
           0.24532431           0.62600665          -0.01361960
          -0.04940239          -0.05424711           0.04450578
          -0.00258715           0.06732087           0.01513465
          -0.04518801          -0.10361258          -0.03891572
          -0.59614500          -0.15390112           0.11980342
Vibration         15
           0.00761658          -0.00594679           0.00194356
          -0.01463634          -0.00272286          -0.01472255
           0.00973228           0.01494691           0.06056231
           0.00038922          -0.01158569          -0.13689338
          -0.01457233           0.00219218           0.09462206
           0.01543413          -0.01567353           0.06316877
           0.15375120           0.00081898           0.45577999
           0.08635017          -0.27333199          -0.13429395
           0.00502010          -0.06743168          -0.20403118
          -0.02536362           0.40026832          -0.04988823
          -0.12880510           0.01602704          -0.20406992
Vibration         16
          -0.02250042           0.01829612           0.00502661
           0.03535840           0.00863766          -0.00541757
           0.00620857          -0.06490582           0.01255850
          -0.09407782           0.06614738          -0.01956230
           0.11712756          -0.01934328           0.00401975
          -0.00301476           0.04178900          -0.00777380
          -0.11015269          -0.08009436           0.17084610
          -0.18088647          -0.33546899           0.05235425
          -0.10347780           0.45003914           0.01221501
          -0.21787353          -0.24154917          -0.09485755
           0.20312307          -0.01240136          -0.11252326
Vibration         17
           0.00750757          -0.00147412           0.03660579
          -0.03141677           0.00608143          -0.16165443
           0.01684276          -0.00467399           0.08854716
          -0.00037506           0.00033167           0.01752519
          -0.00094385           0.00111228          -0.02521672
           0.15372961          -0.01614386           0.64232498
          -0.03685701          -0.00591144          -0.11819339
          -0.01433864           0.09405490           0.03638756
           0.00210625           0.00159466           0.04751386
           0.01250412          -0.10292122           0.01863201
          -0.04706051           0.01877137          -0.24556809
Vibration         18
           0.00556216          -0.00778743           0.01303144
           0.00525897           0.00522176          -0.05621779
          -0.03185473           0.00625825          -0.04702320
           0.00551462          -0.01854185           0.00619672
           0.02034295           0.01815613           0.07884943
           0.07720108          -0.01417192           0.18695372
          -0.09654829          -0.01795027          -0.40933589
          -0.00112340          -0.35178622          -0.11104813
          -0.03595835           0.12041919          -0.15667684
          -0.07289947           0.29806741          -0.07013425
           0.04984237          -0.04308403           0.57006568
Vibration         19
           0.01302696          -0.04483016          -0.00800550
           0.11898924           0.02900596          -0.01214411
          -0.10294827           0.02452855           0.03325303
          -0.00645093          -0.09497459          -0.00500456
           0.00812330           0.10715957          -0.00973057
           0.20027051          -0.04808915          -0.10416331
          -0.07041886          -0.29093834           0.06121085
          -0.06022312           0.10485644           0.04016323
          -0.04017331           0.22645604           0.06358517
          -0.05003364          -0.04158192           0.01384016
          -0.39707860          -0.02172660          -0.02347462
Vibration         20
          -0.00577665           0.03037332           0.00191135
          -0.12683954          -0.03137139           0.02809215
           0.02928294          -0.10233851          -0.01087231
           0.10820760          -0.06498981          -0.02579331
           0.02061922           0.13500199           0.00081133
          -0.22818079           0.04930299           0.05329499
           0.12801339          -0.03624735          -0.03282379
          -0.05442655           0.06466108           0.01976569
          -0.05498627           0.31771062           0.04633345
          -0.05377876           0.00029421           0.00794025
          -0.01729068          -0.11933042          -0.03242253
Vibration         21
          -0.07692760           0.03191529           0.01800304
           0.09577716           0.07627495          -0.01895572
           0.06342379          -0.16756524          -0.02140365
          -0.07020950          -0.02118147           0.01606798
          -0.01899749           0.05167786           0.00856974
           0.09830965           0.07310625          -0.01645868
          -0.00545325           0.14353891          -0.00603792
           0.09197668           0.14444002          -0.02479180
           0.08869209          -0.18859540          -0.04478941
           0.09840177           0.22201859           0.01298774
           0.01556376          -0.17716464          -0.01943636
Vibration         22
           0.00264652          -0.00042372           0.02066749
          -0.00565595           0.00221343          -0.03424639
          -0.00973832          -0.00212842          -0.04438548
          -0.01665571           0.00249468          -0.07409775
          -0.00182010           0.00542321          -0.01470074
           0.05003421          -0.00511885           0.20476221
           0.11165575          -0.04295951           0.51931080
           0.02009012           0.26560578           0.11407437
           0.02636416          -0.04179575           0.14427421
           0.02170617          -0.22053626           0.07957765
           0.13143260          -0.04375982           0.60355728
Vibration         23
           0.09973456          -0.02579513          -0.01843244
          -0.03289432          -0.07589669           0.02382701
          -0.07090441          -0.02828109          -0.08044602
          -0.09579952           0.04300772           0.09627771
           0.04923022           0.07621589          -0.02313675
          -0.05310532          -0.02830450           0.21248206
          -0.07329544           0.02314896           0.21508183
           0.09100404           0.05710850          -0.06298194
           0.11086489          -0.06819637          -0.10043633
           0.11286688           0.25287187          -0.04580006
           0.01921140          -0.00638902          -0.12253341
Vibration         24
           0.06289204          -0.01358705          -0.02110970
          -0.03124553          -0.04576820          -0.02802107
          -0.00073243          -0.02966730           0.14665082
          -0.09242590           0.03671974          -0.09589090
           0.03531275           0.04401094           0.02368304
          -0.13470261          -0.00311732          -0.29360593
          -0.13698018           0.04463517          -0.29214060
           0.09852173           0.21619924           0.06411095
           0.09534623          -0.08223534           0.07689468
           0.07598183          -0.00338657           0.05756655
           0.06448318          -0.01950760           0.16946309
Vibration         25
          -0.14676821          -0.06486624           0.01099732
          -0.03306231          -0.01919675           0.01115873
          -0.00778002           0.05793015           0.00870638
           0.02459269           0.01933659          -0.00704693
           0.15905237           0.02708725          -0.02285324
           0.04377690          -0.08258397           0.00848313
          -0.00545009          -0.05072529          -0.01202171
           0.09760107           0.06977691           0.04602016
           0.19038870          -0.05630587          -0.14538877
           0.30507596           0.07766922           0.04094604
          -0.00240211           0.05769058           0.00691134
Vibration         26
          -0.00473161           0.01324084          -0.12461984
           0.03186665          -0.00035403           0.12028568
          -0.00298988          -0.00674849          -0.01726634
          -0.01791372           0.00082500          -0.06655458
          -0.00657652          -0.00962843           0.07946287
           0.09431135           0.00121167           0.44843966
          -0.03887436           0.01756834          -0.17813684
          -0.16460114           0.06790262           0.24126744
          -0.01702766           0.00031743          -0.05360114
           0.16521111          -0.10361988           0.20395284
          -0.01615487          -0.00413255          -0.06444512
Vibration         27
          -0.02927255          -0.01208088          -0.01284566
           0.00862801          -0.00583339           0.06476169
          -0.00585221           0.01074326          -0.02025555
          -0.00611936           0.00696951          -0.04068879
           0.02979550           0.00335685           0.01212845
           0.05356311          -0.02036399           0.20331819
          -0.02537124           0.00461669          -0.11611747
           0.47665138           0.07145360          -0.29177202
           0.08040647          -0.05841274           0.51186817
          -0.42103642          -0.00037736          -0.22985420
          -0.01459529           0.01340124          -0.06343658
[TITLE]
*** Dalton interface to Molden, wave function type : HF            26Mar24   12:
[Atoms] AU
O          1     8        -3.5448780740         5.4338730414         0.763200694
C          2     6        -2.7270353453         3.2874929721         0.523985458
C          3     6        -0.1137482346         2.6295125289        -0.088761550
C          4     6         1.7718821606         4.2775358009        -0.390658634
C          5     6         1.6291258461         7.1030527375        -0.173481079
H          6     1        -4.0015916662         1.7010752968         0.773121134