

     ************************************************************************
     *************** Dalton - An Electronic Structure Program ***************
     ************************************************************************

    This is output from DALTON release Dalton2022.0-dev (2022)
         ( Web site: http://daltonprogram.org )

   ----------------------------------------------------------------------------

    NOTE:
     
    Dalton is an experimental code for the evaluation of molecular
    properties using (MC)SCF, DFT, CI, and CC wave functions.
    The authors accept no responsibility for the performance of
    the code or for the correctness of the results.
     
    The code (in whole or part) is provided under a licence and
    is not to be reproduced for further distribution without
    the written permission of the authors or their representatives.
     
    See the home page "http://daltonprogram.org" for further information.
     
    If results obtained with this code are published,
    the appropriate citations would be both of:
     
       K. Aidas, C. Angeli, K. L. Bak, V. Bakken,
       R. Bast, L. Boman, O. Christiansen, R. Cimiraglia,
       S. Coriani, P. Dahle, E. K. Dalskov, U. Ekstroem,
       T. Enevoldsen, J. J. Eriksen, P. Ettenhuber, B. Fernandez,
       L. Ferrighi, H. Fliegl, L. Frediani, K. Hald, A. Halkier,
       C. Haettig, H. Heiberg, T. Helgaker, A. C. Hennum,
       H. Hettema, E. Hjertenaes, S. Hoest, I.-M. Hoeyvik,
       M. F. Iozzi, B. Jansik, H. J. Aa. Jensen, D. Jonsson,
       P. Joergensen, J. Kauczor, S. Kirpekar,
       T. Kjaergaard, W. Klopper, S. Knecht, R. Kobayashi, H. Koch,
       J. Kongsted, A. Krapp, K. Kristensen, A. Ligabue,
       O. B. Lutnaes, J. I. Melo, K. V. Mikkelsen, R. H. Myhre,
       C. Neiss, C. B. Nielsen, P. Norman, J. Olsen,
       J. M. H. Olsen, A. Osted, M. J. Packer, F. Pawlowski,
       T. B. Pedersen, P. F. Provasi, S. Reine, Z. Rinkevicius,
       T. A. Ruden, K. Ruud, V. Rybkin, P. Salek, C. C. M. Samson,
       A. Sanchez de Meras, T. Saue, S. P. A. Sauer,
       B. Schimmelpfennig, K. Sneskov, A. H. Steindal,
       K. O. Sylvester-Hvid, P. R. Taylor, A. M. Teale,
       E. I. Tellgren, D. P. Tew, A. J. Thorvaldsen, L. Thoegersen,
       O. Vahtras, M. A. Watson, D. J. D. Wilson, M. Ziolkowski
       and H. Agren,
       "The Dalton quantum chemistry program system",
       WIREs Comput. Mol. Sci. 2014, 4:269-284 (doi: 10.1002/wcms.1172)
     
    and
     
       Dalton, a molecular electronic structure program,
       Release Dalton2022.0-dev (2022), see http://daltonprogram.org
   ----------------------------------------------------------------------------

    Authors in alphabetical order (Major contribution(s) in parenthesis):

  Kestutis Aidas,              Vilnius University,        Lithuania   (QM/MM)
  Celestino Angeli,            University of Ferrara,     Italy       (NEVPT2)
  Juan J. Aucar,               Northeast National UniversiArgentina   (LRESC, Relativistic Effects on EFG)
  Keld L. Bak,                 UNI-C,                     Denmark     (AOSOPPA, non-adiabatic coupling, magnetic properties)
  Vebjoern Bakken,             University of Oslo,        Norway      (DALTON; geometry optimizer, symmetry detection)
  Radovan Bast,                UiT The Arctic U. of NorwayNorway      (DALTON installation and execution frameworks)
  Pablo Baudin,                University of Valencia,    Spain       (Cholesky excitation energies)
  Linus Boman,                 NTNU,                      Norway      (Cholesky decomposition and subsystems)
  Bruno N. Cabral Tenorio,     Technical Univ. of Denmark,Denmark     (Lanczos-based CC methods)
  Ove Christiansen,            Aarhus University,         Denmark     (CC module)
  Renzo Cimiraglia,            University of Ferrara,     Italy       (NEVPT2)
  Sonia Coriani,               Technical Univ. of Denmark,Denmark     (CC and RESPONS modules)
  Janusz Cukras,               University of Warsaw,      Poland      (MChD in RESPONS)
  Paal Dahle,                  University of Oslo,        Norway      (Parallelization)
  Erik K. Dalskov,             UNI-C,                     Denmark     (SOPPA)
  Thomas Enevoldsen,           Univ. of Southern Denmark, Denmark     (SOPPA)
  Janus J. Eriksen,            Aarhus University,         Denmark     (Polarizable embedding, TDA)
  Rasmus Faber,                Technical Univ. of Denmark,Denmark     (Vib.avg. NMR w. SOPPA, parallel AO-SOPPA, CVS-CC and EOMCC)
  Tobias Fahleson,             KTH Stockholm,             Sweden      (Damped cubic response)
  Berta Fernandez,             U. of Santiago de CompostelSpain       (Doublet spin, ESR in RESPONS)
  Lara Ferrighi,               Aarhus University,         Denmark     (PCM Cubic response)
  Heike Fliegl,                University of Oslo,        Norway      (CCSD(R12))
  Luca Frediani,               UiT The Arctic U. of NorwayNorway      (PCM)
  Emmanuel Fromager,           Univ. Strasbourg,          France      (MC-srDFT)
  Bin Gao,                     UiT The Arctic U. of NorwayNorway      (Gen1Int library)
  Andre S. P. Gomes,           CNRS/Universite de Lille,  France      (Frozen density embedding)
  Christof Haettig,            Ruhr-University Bochum,    Germany     (CC module)
  Kasper Hald,                 Aarhus University,         Denmark     (CC module)
  Asger Halkier,               Aarhus University,         Denmark     (CC module)
  Frederik Beyer Hansen,       University of Copenhagen,  Denmark     (Parallel AO-SOPPA)
  Erik D. Hedegaard,           Univ. of Southern Denmark, Denmark     (Polarizable embedding, QM/MM, and MC-srDFT)
  Hanne Heiberg,               University of Oslo,        Norway      (Geometry analysis, selected one-electron integrals)
  Trygve Helgaker,             University of Oslo,        Norway      (DALTON; ABACUS, ERI, DFT modules, London, and much more)
  Alf Christian Hennum,        University of Oslo,        Norway      (Parity violation)
  Hinne Hettema,               University of Auckland,    New Zealand (Quadratic response in RESPONS; SIRIUS supersymmetry)
  Andreas E. Hillers-Bendtsen, University of Copenhagen,  Denmark     (MP3)
  Eirik Hjertenaes,            NTNU,                      Norway      (Cholesky decomposition)
  Nicolai Machholdt Hoeyer,    Aarhus University,         Denmark     (MP3)
  Pi A. B. Haase,              University of Copenhagen,  Denmark     (Triplet AO-SOPPA)
  Maria Francesca Iozzi,       University of Oslo,        Norway      (RPA)
  Christoph Jacob,             TU Braunschweig            Germany     (Frozen density embedding)
  Brano Jansik,                Technical Univ. of Ostrava Czech Rep.  (DFT cubic response)
  Hans Joergen Aa. Jensen,     Univ. of Southern Denmark, Denmark     (DALTON; SIRIUS, RESPONS, ABACUS, MC-srDFT, and much more)
  Dan Jonsson,                 UiT The Arctic U. of NorwayNorway      (Cubic response in RESPONS module)
  Poul Joergensen,             Aarhus University,         Denmark     (RESPONS, ABACUS, and CC modules)
  Maciej Kaminski,             University of Warsaw,      Poland      (CPPh in RESPONS)
  Joanna Kauczor,              Linkoeping University,     Sweden      (Complex polarization propagator (CPP) module)
  Sheela Kirpekar,             Univ. of Southern Denmark, Denmark     (Mass-velocity & Darwin integrals)
  Frederik Oersted Kjeldal,    Technical Univ. of Denmark,Denmark     (MP3)
  Erik Kjellgren,              Univ. of Southern Denmark, Denmark     (MC-srDFT)
  Wim Klopper,                 KIT Karlsruhe,             Germany     (R12 code in CC, SIRIUS, and ABACUS modules)
  Stefan Knecht,               ETH Zurich,                Switzerland (Parallel CI and MCSCF, MC-srDFT)
  Rika Kobayashi,              Australian National Univ., Australia   (DIIS in CC, London in MCSCF)
  Henrik Koch,                 NTNU,                      Norway      (CC module, Cholesky decomposition)
  Jacob Kongsted,              Univ. of Southern Denmark, Denmark     (Polarizable embedding, polarizable density embedding, QM/MM)
  Andrea Ligabue,              University of Modena,      Italy       (CTOCD, AOSOPPA)
  Nanna H. List,               Univ. of Southern Denmark, Denmark     (Polarizable embedding)
  Ola B. Lutnaes,              University of Oslo,        Norway      (DFT Hessian)
  Juan I. Melo,                University of Buenos Aires,Argentina   (LRESC, Relativistic Effects on NMR Shieldings)
  Kurt V. Mikkelsen,           University of Copenhagen,  Denmark     (MC-SCRF, QM/MM, and MP3)
  Rolf H. Myhre,               NTNU,                      Norway      (Subsystems and CC3)
  Christian Neiss,             Univ. Erlangen-Nuernberg,  Germany     (CCSD(R12))
  Christian B. Nielsen,        University of Copenhagen,  Denmark     (QM/MM)
  Patrick Norman,              KTH Stockholm,             Sweden      (Cubic response and complex frequency response in RESPONS)
  Jeppe Olsen,                 Aarhus University,         Denmark     (SIRIUS CI/density modules)
  Jogvan Magnus H. Olsen,      Aarhus University,         Denmark     (Polarizable embedding and polarizable density embedding)
  Anders Osted,                Copenhagen University,     Denmark     (QM/MM)
  Martin J. Packer,            University of Sheffield,   UK          (SOPPA)
  Filip Pawlowski,             Kazimierz Wielki UniversityPoland      (CC3)
  Morten N. Pedersen,          Univ. of Southern Denmark, Denmark     (Polarizable embedding)
  Thomas B. Pedersen,          University of Oslo,        Norway      (Cholesky decomposition)
  Patricio F. Provasi,         University of Northeastern,Argentina   (Analysis of coupling constants in localized orbitals)
  Peter Reinholdt,             Univ. of Southern Denmark, Denmark     (Polarizable embedding and polarizable density embedding)
  Zilvinas Rinkevicius,        KTH Stockholm,             Sweden      (open-shell DFT, ESR)
  Elias Rudberg,               KTH Stockholm,             Sweden      (DFT grid and basis info)
  Torgeir A. Ruden,            University of Oslo,        Norway      (Numerical derivatives in ABACUS)
  Kenneth Ruud,                UiT The Arctic U. of NorwayNorway      (DALTON; ABACUS magnetic properties and much more)
  Pawel Salek,                 KTH Stockholm,             Sweden      (DALTON; DFT code)
  Claire C. M. Samson,         University of Karlsruhe    Germany     (Boys localization, r12 integrals in ERI)
  Alfredo Sanchez de Meras,    University of Valencia,    Spain       (CC module, Cholesky decomposition)
  Trond Saue,                  Paul Sabatier University,  France      (direct Fock matrix construction)
  Stephan P. A. Sauer,         University of Copenhagen,  Denmark     (SOPPA(CCSD), SOPPA prop., AOSOPPA, vibrational g-factors)
  Bernd Schimmelpfennig,       Forschungszentrum KarlsruheGermany     (AMFI module)
  Anna K. Schnack-Petersen,    University of Copenhagen,  Denmark     (RPA(D) and HRPA(D) properties in AOSOPPA)
  Kristian Sneskov,            Aarhus University,         Denmark     (Polarizable embedding, QM/MM)
  Arnfinn H. Steindal,         UiT The Arctic U. of NorwayNorway      (parallel QM/MM, polarizable embedding)
  Casper Steinmann,            Aalborg University,        Denmark     (QFIT, polarizable embedding)
  K. O. Sylvester-Hvid,        University of Copenhagen,  Denmark     (MC-SCRF)
  Peter R. Taylor,             VLSCI/Univ. of Melbourne,  Australia   (Symmetry handling ABACUS, integral transformation)
  Andrew M. Teale,             University of Nottingham,  England     (DFT-AC, DFT-D)
  David P. Tew,                University of Bristol,     England     (CCSD(R12))
  Julien Toulouse,             Sorbonne Univ.,            France      (MC-srDFT)
  Olav Vahtras,                KTH Stockholm,             Sweden      (Triplet response, spin-orbit, ESR, TDDFT, open-shell DFT)
  Lucas Visscher,              Vrije Universiteit AmsterdaNetherlands (Frozen density embedding)
  David J. Wilson,             La Trobe University,       Australia   (DFT Hessian and DFT magnetizabilities)
  Luna Zamok,                  University of Copenhagen,  Denmark     (Block Lanczos RPA solver in SOPPA module)
  Hans Agren,                  KTH Stockholm,             Sweden      (SIRIUS module, RESPONS, MC-SCRF solvation)
 --------------------------------------------------------------------------------

     Date and time (Linux)  : Tue Mar 26 12:42:17 2024
     Host name              : node103                                 

 * Work memory size             :    64000000 =  488.28 megabytes.

 * Directories for basis set searches:
   1) /home1/s4925076/Sample_inputs_dalton2024_updated/ex3/enol_saddle_vib
   2) /home3/hb-qchav/Dalton/basis


Compilation information
-----------------------

 Who compiled             | p256146
 Host                     | login1
 System                   | Linux-4.18.0-425.13.1.el8_7.x86_64
 CMake generator          | Unix Makefiles
 Processor                | x86_64
 64-bit integers          | OFF
 MPI                      | ON
 Fortran compiler         | /cvmfs/hpc.rug.nl/versions/2023.01/rocky8/x86_64/a
                          | md/zen3/software/impi/2021.7.1-intel-compilers-202
                          | 2.2.1/mpi/2021.7.1/bin/mpiifort
 Fortran compiler version | unknown
 C compiler               | /cvmfs/hpc.rug.nl/versions/2023.01/rocky8/x86_64/a
                          | md/zen3/software/impi/2021.7.1-intel-compilers-202
                          | 2.2.1/mpi/2021.7.1/bin/mpiicc
 C compiler version       | unknown
 C++ compiler             | /cvmfs/hpc.rug.nl/versions/2023.01/rocky8/x86_64/a
                          | md/zen3/software/impi/2021.7.1-intel-compilers-202
                          | 2.2.1/mpi/2021.7.1/bin/mpiicpc
 C++ compiler version     | unknown
 BLAS                     | /cvmfs/hpc.rug.nl/versions/2023.01/rocky8/x86_64/a
                          | md/zen3/software/imkl/2022.2.1/mkl/2022.2.1/lib/in
                          | tel64/libmkl_intel_lp64.so;/cvmfs/hpc.rug.nl/versi
                          | ons/2023.01/rocky8/x86_64/amd/zen3/software/imkl/2
                          | 022.2.1/mkl/2022.2.1/lib/intel64/libmkl_sequential
                          | .so;/cvmfs/hpc.rug.nl/versions/2023.01/rocky8/x86_
                          | 64/amd/zen3/software/imkl/2022.2.1/mkl/2022.2.1/li
                          | b/intel64/libmkl_core.so;/usr/lib64/libpthread.so;
                          | /usr/lib64/libm.so
 LAPACK                   | /cvmfs/hpc.rug.nl/versions/2023.01/rocky8/x86_64/a
                          | md/zen3/software/imkl/2022.2.1/mkl/2022.2.1/lib/in
                          | tel64/libmkl_lapack95_lp64.a;/cvmfs/hpc.rug.nl/ver
                          | sions/2023.01/rocky8/x86_64/amd/zen3/software/imkl
                          | /2022.2.1/mkl/2022.2.1/lib/intel64/libmkl_intel_lp
                          | 64.so
 Static linking           | OFF
 Last Git revision        | 4d6ac05be54d7f9c5fe49e0ac32a42491a6c6955
 Git branch               | master
 Configuration time       | 2023-04-05 13:35:07.780405

 * Sequential calculation.


   Content of the .dal input file
 ----------------------------------

**DALTON INPUT
.RUN PROPERTIES
**WAVE FUNCTION
.HF
**PROPERTIES
.VIBANA
**END OF DALTON INPUT


   Content of the .mol file
 ----------------------------

BASIS
6-31G
opt

Atomtypes=3 Nosymmetry Angstrom
Charge=8.0 Atoms=1
O       -1.8758686918            2.8754817799            0.4038684146
Charge=6.0 Atoms=4
C       -1.4430849578            1.7396663615            0.2772811632
C       -0.0601929735            1.3914781058           -0.0469705895
C        0.9376396596            2.2635744642           -0.2067276465
C        0.8620962713            3.7587736358           -0.0918022338
Charge=1.0 Atoms=6
H       -2.1175511167            0.9001702809            0.4091180858
H        1.9047407721            1.8570784845           -0.4473493792
H        0.2647727923            4.1763709610           -0.8946044197
H        1.8499528107            4.1964610213           -0.1354901637
H        0.3797128021            4.0607324067            0.8277906668
H        0.1379626317            0.3414724985           -0.1576438979


       *******************************************************************
       *********** Output from DALTON general input processing ***********
       *******************************************************************

 --------------------------------------------------------------------------------
   Overall default print level:    0
   Print level for DALTON.STAT:    1

    HERMIT 1- and 2-electron integral sections will be executed
    "Old" integral transformation used (limited to max 255 basis functions)
    Wave function sections will be executed (SIRIUS module)
    Static molecular property section will be executed (ABACUS module)
 --------------------------------------------------------------------------------


   ****************************************************************************
   *************** Output of molecule and basis set information ***************
   ****************************************************************************


    The two title cards from your ".mol" input:
    --------------------------------------------------------------------------------
 1: opt
 2: 
    --------------------------------------------------------------------------------

  Coordinates are entered in Angstrom and converted to atomic units.
          - Conversion factor : 1 bohr = 0.52917721 A

  Atomic type no.    1
  --------------------
  Nuclear charge:   8.00000
  Number of symmetry independent centers:    1
  Number of basis sets to read;    2
  Basis set file used for this atomic type with Z =   8 :
     "/home3/hb-qchav/Dalton/basis/6-31G"

  Info about the basis set file: your basis has no documentation.
  Basis set: 6-31G                                                                           

  Atomic type no.    2
  --------------------
  Nuclear charge:   6.00000
  Number of symmetry independent centers:    4
  Number of basis sets to read;    2
  Basis set file used for this atomic type with Z =   6 :
     "/home3/hb-qchav/Dalton/basis/6-31G"

  Info about the basis set file: your basis has no documentation.
  Basis set: 6-31G                                                                           

  Atomic type no.    3
  --------------------
  Nuclear charge:   1.00000
  Number of symmetry independent centers:    6
  Number of basis sets to read;    2
  Basis set file used for this atomic type with Z =   1 :
     "/home3/hb-qchav/Dalton/basis/6-31G"

  Info about the basis set file: your basis has no documentation.
  Basis set: 6-31G                                                                           


                         SYMGRP: Point group information
                         -------------------------------

@    Point group: C1 


                                 Isotopic Masses
                                 ---------------

                           O          15.994915
                           C          12.000000
                           C          12.000000
                           C          12.000000
                           C          12.000000
                           H           1.007825
                           H           1.007825
                           H           1.007825
                           H           1.007825
                           H           1.007825
                           H           1.007825

                       Total mass:    70.041865 amu
                       Natural abundance:  95.357 %

 Center-of-mass coordinates (a.u.):   -0.647744    4.626760    0.141373
 Center-of-mass coordinates (Angs):   -0.342771    2.448376    0.074811


  Atoms and basis sets
  --------------------

  Number of atom types :    3
  Total number of atoms:   11

  Basis set used is "6-31G" from the basis set library.

  label    atoms   charge   prim   cont     basis
  ----------------------------------------------------------------------
  O           1    8.0000    22     9      [10s4p|3s2p]                                       
  C           4    6.0000    22     9      [10s4p|3s2p]                                       
  H           6    1.0000     4     2      [4s|2s]                                            
  ----------------------------------------------------------------------
  total:     11   38.0000   134    57
  ----------------------------------------------------------------------

  Threshold for neglecting AO integrals:  1.00D-12


  Cartesian Coordinates (a.u.)
  ----------------------------

  Total number of coordinates:   33
  O       :     1  x  -3.5448780740    2  y   5.4338730414    3  z   0.7632006941
  C       :     4  x  -2.7270353453    5  y   3.2874929721    6  z   0.5239854581
  C       :     7  x  -0.1137482346    8  y   2.6295125289    9  z  -0.0887615501
  C       :    10  x   1.7718821606   11  y   4.2775358009   12  z  -0.3906586343
  C       :    13  x   1.6291258461   14  y   7.1030527375   15  z  -0.1734810795
  H       :    16  x  -4.0015916662   17  y   1.7010752968   18  z   0.7731211349
  H       :    19  x   3.5994383984   20  y   3.5093697283   21  z  -0.8453678089
  H       :    22  x   0.5003480628   23  y   7.8921973127   24  z  -1.6905573434
  H       :    25  x   3.4959041564   26  y   7.9301620245   27  z  -0.2560393020
  H       :    28  x   0.7175532021   29  y   7.6736721155   30  z   1.5642976491
  H       :    31  x   0.2607115894   32  y   0.6452895014   33  z  -0.2979037923


   Interatomic separations (in Angstrom):
   --------------------------------------

            O           C           C           C           C           H     
            ------      ------      ------      ------      ------      ------
 O     :    0.000000
 C     :    1.222049    0.000000
 C     :    2.387928    1.462452    0.000000
 C     :    2.943312    2.485275    1.334820    0.000000
 C     :    2.919306    3.086564    2.541007    1.501511    0.000000
 H     :    1.990049    1.084914    2.163821    3.401812    4.159427    0.000000
 H     :    4.006835    3.427362    2.058653    1.076300    2.197718    4.222327
 H     :    2.821470    3.198066    2.929115    2.141195    1.084285    4.255426
 H     :    3.989692    4.129203    3.394764    2.138560    1.081360    5.186831
 H     :    2.583056    3.002166    2.843175    2.147391    1.081445    4.049786
 H     :    3.285120    2.154952    1.074256    2.082395    3.493802    2.391799

            H           H           H           H           H     
            ------      ------      ------      ------      ------
 H     :    0.000000
 H     :    2.875526    0.000000
 H     :    2.360714    1.757684    0.000000
 H     :    2.967791    1.730095    1.762934    0.000000
 H     :    2.345740    3.907127    4.218096    3.855181    0.000000


  Max    interatomic separation is    5.1868 Angstrom (    9.8017 Bohr)
  between atoms    9 and    6, "H     " and "H     ".

  Min HX interatomic separation is    1.0743 Angstrom (    2.0300 Bohr)

  Min YX interatomic separation is    1.2220 Angstrom (    2.3093 Bohr)


  Bond distances (Angstrom):
  --------------------------

                  atom 1     atom 2       distance
                  ------     ------       --------
  bond distance:  C          O            1.222049
  bond distance:  C          C            1.462452
  bond distance:  C          C            1.334820
  bond distance:  C          C            1.501511
  bond distance:  H          C            1.084914
  bond distance:  H          C            1.076300
  bond distance:  H          C            1.084285
  bond distance:  H          C            1.081360
  bond distance:  H          C            1.081445
  bond distance:  H          C            1.074256


  Bond angles (degrees):
  ----------------------

                  atom 1     atom 2     atom 3         angle
                  ------     ------     ------         -----
  bond angle:     O          C          C            125.390
  bond angle:     O          C          H            119.107
  bond angle:     C          C          H            115.504
  bond angle:     C          C          C            125.300
  bond angle:     C          C          H            115.466
  bond angle:     C          C          H            119.234
  bond angle:     C          C          C            127.144
  bond angle:     C          C          H            116.853
  bond angle:     C          C          H            116.002
  bond angle:     C          C          H            110.767
  bond angle:     C          C          H            110.732
  bond angle:     C          C          H            111.443
  bond angle:     H          C          H            108.509
  bond angle:     H          C          H            106.041
  bond angle:     H          C          H            109.197




 Principal moments of inertia (u*A**2) and principal axes
 --------------------------------------------------------

   IA      55.297091          0.935179    0.307139   -0.176369
   IB     115.644536         -0.290681    0.950095    0.113244
   IC     167.905465          0.202349   -0.054637    0.977788


 Rotational constants
 --------------------

               A                   B                   C

           9139.3416           4370.1071           3009.9021 MHz
            0.304856            0.145771            0.100400 cm-1


@  Nuclear repulsion energy :  160.585295218189 Hartree


                     .---------------------------------------.
                     | Starting in Integral Section (HERMIT) |
                     `---------------------------------------'



 ***************************************************************************************
 ****************** Output from **INTEGRALS input processing (HERMIT) ******************
 ***************************************************************************************


 - Using defaults, no **INTEGRALS input found

 Default print level:        1

 Calculation of one- and two-electron Hamiltonian integrals.

 Center of mass  (bohr):     -0.647743858154      4.626760144645      0.141372637350
 Operator center (bohr):      0.000000000000      0.000000000000      0.000000000000
 Gauge origin    (bohr):      0.000000000000      0.000000000000      0.000000000000
 Dipole origin   (bohr):      0.000000000000      0.000000000000      0.000000000000

Calculation of 2-electron integrals are postponed until they are needed.


     ************************************************************************
     ************************** Output from HERINT **************************
     ************************************************************************



                      Nuclear contribution to dipole moments
                      --------------------------------------

                 au               Debye          C m (/(10**-30)

      x    -20.42531429       -51.91596718      -173.17302617
      y    176.60831455       448.89353141      1497.34764645
      z      4.57966125        11.64033709        38.82798508


  Total CPU  time used in HERMIT:   0.03 seconds
  Total wall time used in HERMIT:   0.03 seconds


                        .----------------------------------.
                        | End of Integral Section (HERMIT) |
                        `----------------------------------'



                   .--------------------------------------------.
                   | Starting in Wave Function Section (SIRIUS) |
                   `--------------------------------------------'


 *** Output from Huckel module :

     Using EWMO model:          T
     Using EHT  model:          F
     Number of Huckel orbitals each symmetry:   31

 EWMO - Energy Weighted Maximum Overlap - is a Huckel type method,
        which normally is better than Extended Huckel Theory.
 Reference: Linderberg and Ohrn, Propagators in Quantum Chemistry (Wiley, 1973)

 Huckel EWMO eigenvalues for symmetry :  1
          -20.684676     -11.359216     -11.353026     -11.350673     -11.345519
           -1.817557      -1.556739      -1.354237      -1.037090      -0.913064
           -0.809641      -0.777918      -0.663755      -0.641372      -0.575534
           -0.548929      -0.495161      -0.460918      -0.416606      -0.313040
           -0.214188      -0.161050      -0.136402      -0.130791      -0.121143
           -0.117475      -0.116178      -0.113389      -0.104953      -0.091768
           -0.082690

 **********************************************************************
 *SIRIUS* a direct, restricted step, second order MCSCF program       *
 **********************************************************************

 
     Date and time (Linux)  : Tue Mar 26 12:42:17 2024
     Host name              : node103                                 

 Title lines from ".mol" input file:
     opt
     

 Print level on unit LUPRI =   2 is   0
 Print level on unit LUW4  =   2 is   5

@    Restricted, closed shell Hartree-Fock calculation.

@    Time-dependent Hartree-Fock calculation (random phase approximation).

 Initial molecular orbitals are obtained according to
 ".MOSTART EWMO  " input option

     Wave function specification
     ============================
@    Wave function type        --- HF ---
@    Number of closed shell electrons          38
@    Number of electrons in active shells       0
@    Total charge of the molecule               0

@    Spin multiplicity and 2 M_S                1         0
@    Total number of symmetries                 1 (point group: C1 )
@    Reference state symmetry                   1 (irrep name : A  )

     Orbital specifications
     ======================
@    Abelian symmetry species          All |    1
@                                          |  A  
                                       --- |  ---
@    Occupied SCF orbitals              19 |   19
@    Secondary orbitals                 38 |   38
@    Total number of orbitals           57 |   57
@    Number of basis functions          57 |   57

     Optimization information
     ========================
@    Number of configurations                 1
@    Number of orbital rotations            722
     ------------------------------------------
@    Total number of variables              723

     Maximum number of Fock   iterations      0
     Maximum number of DIIS   iterations     60
     Maximum number of QC-SCF iterations     60
     Threshold for SCF convergence     1.00D-05


 ***********************************************
 ***** DIIS acceleration of SCF iterations *****
 ***********************************************

 C1-DIIS algorithm; max error vectors =    8

 Iter      Total energy        Error norm    Delta(E)  DIIS dim.
 -----------------------------------------------------------------------------

Calculating AOSUPINT

---> (Re)generating AOTWOINT


     ************************************************************************
     ************************** Output from HERINT **************************
     ************************************************************************


 Threshold for neglecting two-electron integrals:  1.00D-12
 HERMIT - Number of two-electron integrals written:     1317509 ( 96.4% )
 HERMIT - Megabytes written:                             15.087

  Total CPU  time used in TWOINT:   0.17 seconds
  Total wall time used in TWOINT:   0.17 seconds
  Time used in TWOINT     is       0.17 seconds
  CPU  time used in MAKE_AOTWOINT is   0.17 seconds
  WALL time used in MAKE_AOTWOINT is   0.17 seconds
     (Precalculated AO two-electron integrals are transformed to P-supermatrix elements.
      Threshold for discarding integrals :  1.00D-12 )

@  1    -228.802873153        3.46777D+00   -2.29D+02    1
      Virial theorem: -V/T =      2.007834
@    MULPOP   O      -1.01; C       0.84; C       0.23; C       0.50; C       0.38; H      -0.22; H      -0.19; H      -0.09; H      -0.14; H      -0.10; 
@             H      -0.18; 
   1  Level shift: doubly occupied orbital energies shifted by -2.00D-01
 -----------------------------------------------------------------------------
@  2    -229.551075351        1.63005D+00   -7.48D-01    2
      Virial theorem: -V/T =      2.002060
@    MULPOP   O      -0.03; C      -0.08; C      -0.30; C      -0.17; C      -0.46; H       0.09; H       0.18; H       0.21; H       0.16; H       0.22; 
@             H       0.17; 
   2  Level shift: doubly occupied orbital energies shifted by -1.00D-01
 -----------------------------------------------------------------------------
@  3    -229.688274576        3.60511D-01   -1.37D-01    3
      Virial theorem: -V/T =      1.997588
@    MULPOP   O      -0.55; C       0.32; C      -0.24; C      -0.10; C      -0.51; H       0.14; H       0.18; H       0.21; H       0.16; H       0.21; 
@             H       0.17; 
   3  Level shift: doubly occupied orbital energies shifted by -2.50D-02
 -----------------------------------------------------------------------------
@  4    -229.697264530        1.03877D-01   -8.99D-03    4
      Virial theorem: -V/T =      2.000091
@    MULPOP   O      -0.52; C       0.30; C      -0.28; C      -0.07; C      -0.48; H       0.15; H       0.18; H       0.20; H       0.15; H       0.21; 
@             H       0.18; 
   4  Level shift: doubly occupied orbital energies shifted by -1.25D-02
 -----------------------------------------------------------------------------
@  5    -229.698402764        2.72898D-02   -1.14D-03    5
      Virial theorem: -V/T =      1.999257
@    MULPOP   O      -0.54; C       0.31; C      -0.28; C      -0.10; C      -0.50; H       0.16; H       0.19; H       0.20; H       0.16; H       0.21; 
@             H       0.19; 
 -----------------------------------------------------------------------------
@  6    -229.698518204        9.62317D-03   -1.15D-04    6
      Virial theorem: -V/T =      1.999218
@    MULPOP   O      -0.54; C       0.31; C      -0.29; C      -0.10; C      -0.49; H       0.16; H       0.19; H       0.20; H       0.16; H       0.21; 
@             H       0.19; 
 -----------------------------------------------------------------------------
@  7    -229.698536654        3.25481D-03   -1.85D-05    7
      Virial theorem: -V/T =      1.999228
@    MULPOP   O      -0.54; C       0.31; C      -0.29; C      -0.10; C      -0.49; H       0.16; H       0.19; H       0.20; H       0.15; H       0.21; 
@             H       0.19; 
 -----------------------------------------------------------------------------
@  8    -229.698538301        8.47996D-04   -1.65D-06    8
      Virial theorem: -V/T =      1.999227
@    MULPOP   O      -0.54; C       0.31; C      -0.29; C      -0.10; C      -0.49; H       0.16; H       0.19; H       0.20; H       0.15; H       0.21; 
@             H       0.19; 
 -----------------------------------------------------------------------------
@  9    -229.698538435        3.34234D-04   -1.34D-07    8
      Virial theorem: -V/T =      1.999227
@    MULPOP   O      -0.54; C       0.31; C      -0.29; C      -0.10; C      -0.49; H       0.16; H       0.19; H       0.20; H       0.15; H       0.21; 
@             H       0.19; 
 -----------------------------------------------------------------------------
@ 10    -229.698538455        1.15785D-04   -2.09D-08    8
      Virial theorem: -V/T =      1.999227
@    MULPOP   O      -0.54; C       0.31; C      -0.29; C      -0.10; C      -0.49; H       0.16; H       0.19; H       0.20; H       0.15; H       0.21; 
@             H       0.19; 
 -----------------------------------------------------------------------------
@ 11    -229.698538459        3.74036D-05   -3.99D-09    8
      Virial theorem: -V/T =      1.999227
@    MULPOP   O      -0.54; C       0.31; C      -0.29; C      -0.10; C      -0.49; H       0.16; H       0.19; H       0.20; H       0.15; H       0.21; 
@             H       0.19; 
 -----------------------------------------------------------------------------
@ 12    -229.698538460        2.04284D-05   -5.02D-10    8
      Virial theorem: -V/T =      1.999227
@    MULPOP   O      -0.54; C       0.31; C      -0.29; C      -0.10; C      -0.49; H       0.16; H       0.19; H       0.20; H       0.15; H       0.21; 
@             H       0.19; 
 -----------------------------------------------------------------------------
@ 13    -229.698538460        9.39817D-06   -1.45D-10    8

@ *** DIIS converged in  13 iterations !
@     Converged SCF energy, gradient:   -229.698538460040    9.40D-06
    - total time used in SIRFCK :              0.00 seconds


 *** SCF orbital energy analysis ***

 Only the 20 lowest virtual orbital energies printed in each symmetry.

 Number of electrons        :   38
 Closed shell orbitals      :   19

 Sym       Hartree-Fock orbital energies

1 A     -20.56245289   -11.33815540   -11.27481659   -11.24043756   -11.22493597
         -1.39994160    -1.10034195    -0.97955768    -0.86901810    -0.74698046
         -0.69090360    -0.62838752    -0.61158460    -0.57891081    -0.53700057
         -0.52577201    -0.52391005    -0.41644944    -0.37342583     0.08703788
          0.23219577     0.24350329     0.27247958     0.28727201     0.32318144
          0.34162576     0.35386005     0.40045981     0.43559014     0.54732745
          0.56465398     0.73933098     0.75037184     0.76938933     0.80577466
          0.83088109     0.84263116     0.86555448     0.93287573

    E(LUMO) :     0.08703788 au (symmetry 1)
  - E(HOMO) :    -0.37342583 au (symmetry 1)
  ------------------------------------------
    gap     :     0.46046370 au

 --- Writing SIRIFC interface file

--------------------------------------------------------------------------------


     .--------------------------------------------------.
     | HF-SCF KT IPs [a.u. & eV] from Koopmans' theorem |
     `--------------------------------------------------'


     HF-SCF KT symmetry 1 ( A  ) in point group C1  -- 19 principal poles with pole strength 1

   ============  ============  ============  ============  ============
      20.562453     11.338155     11.274817     11.240438     11.224936
     559.532806    308.526903    306.803366    305.867865    305.446046
   ============  ============  ============  ============  ============

   ============  ============  ============  ============  ============
       1.399942      1.100342      0.979558      0.869018      0.746980
      38.094349     29.941828     26.655120     23.647185     20.326372
   ============  ============  ============  ============  ============

   ============  ============  ============  ============  ============
       0.690904      0.628388      0.611585      0.578911      0.537001
      18.800443     17.099294     16.642063     15.752965     14.612529
   ============  ============  ============  ============  ============

   ============  ============  ============  ============
       0.525772      0.523910      0.416449      0.373426
      14.306984     14.256318     11.332166     10.161434
   ============  ============  ============  ============

@ Summary of HF-SCF KT ionization potentials [eV]:

@ Symmetry 1 (A  ) :   559.533     308.527     306.803     305.868     305.446
@                       38.094      29.942      26.655      23.647      20.326
@                       18.800      17.099      16.642      15.753      14.613
@                       14.307      14.256      11.332      10.161

  === End of HF-SCF KT output ===
--------------------------------------------------------------------------------


 CPU and wall time for SCF :       0.270       0.518


                       .-----------------------------------.
                       | --- Final results from SIRIUS --- |
                       `-----------------------------------'


@    Spin multiplicity:           1
@    Spatial symmetry:            1 ( irrep  A   in C1  )
@    Total charge of molecule:    0

@    Final HF energy:            -229.698538460040                 
@    Nuclear repulsion:           160.585295218189
@    Electronic energy:          -390.283833678228

@    Final gradient norm:           0.000009398173

 
     Date and time (Linux)  : Tue Mar 26 12:42:18 2024
     Host name              : node103                                 

File label for MO orbitals:  26Mar24   FOCKDIIS

 (Only coefficients > 0.0100 are printed.)

 Molecular orbitals for symmetry species 1  (A  )
 ------------------------------------------------

    Orbital        10       11       12       13       14       15       16
   1 O   :1s    -0.0375   0.0524  -0.0132  -0.0584   0.0014   0.0128   0.0065
   2 O   :1s     0.0873  -0.1189   0.0285   0.1303  -0.0034  -0.0294  -0.0124
   3 O   :1s     0.1175  -0.1981   0.0602   0.2396  -0.0051  -0.0452  -0.0383
   4 O   :2px    0.1150   0.1999   0.1788  -0.1704   0.0337   0.1635  -0.1018
   5 O   :2py    0.1728  -0.1413   0.1282   0.3861  -0.0092  -0.0266  -0.1616
   6 O   :2pz   -0.0211  -0.0471  -0.0444   0.0540   0.1281  -0.0024  -0.1297
   7 O   :2px    0.0549   0.1077   0.1032  -0.0933   0.0231   0.1069  -0.0754
   8 O   :2py    0.0874  -0.0689   0.0686   0.2173  -0.0060  -0.0153  -0.1025
   9 O   :2pz   -0.0098  -0.0248  -0.0264   0.0303   0.0883   0.0007  -0.0911
  10 C   :1s     0.0622  -0.0464  -0.0092   0.0145  -0.0005  -0.0077   0.0212
  11 C   :1s    -0.1410   0.1181   0.0153  -0.0644   0.0013   0.0173  -0.0360
  12 C   :1s    -0.1255   0.0901   0.0292   0.0363  -0.0008   0.0329  -0.0879
  13 C   :2px    0.2509   0.1072   0.2591   0.0789   0.0215  -0.0075  -0.0969
  14 C   :2py    0.1019   0.1590   0.0312  -0.3273   0.0011   0.0426   0.1153
  15 C   :2pz   -0.0541  -0.0174  -0.0640  -0.0210   0.1114   0.0271  -0.0876
  16 C   :2px    0.0901   0.0616   0.1217  -0.0135   0.0139   0.0447  -0.0406
  17 C   :2py    0.0904   0.0164   0.0272  -0.0448  -0.0026   0.0022   0.0380
  18 C   :2pz   -0.0177  -0.0125  -0.0300   0.0048   0.0637   0.0056  -0.0619
  19 C   :1s    -0.0705   0.0410   0.0110   0.0140  -0.0001   0.0296  -0.0127
  20 C   :1s     0.1452  -0.0779  -0.0227  -0.0281  -0.0010  -0.0613   0.0244
  21 C   :1s     0.1230  -0.1105  -0.0080  -0.0332   0.0067  -0.1263   0.0659
  22 C   :2px   -0.0386  -0.0852  -0.2481  -0.1088   0.0289  -0.0457  -0.0077
  23 C   :2py    0.0094   0.2951  -0.1280   0.0852  -0.0052  -0.1852  -0.1987
  24 C   :2pz    0.0079   0.0370   0.0430   0.0346   0.1077   0.0064  -0.0507
  25 C   :2px   -0.0215  -0.0004  -0.0643  -0.0656   0.0190   0.0036   0.0098
  26 C   :2py   -0.0455   0.1375  -0.0360   0.0238   0.0032  -0.0976  -0.1406
  27 C   :2pz    0.0018   0.0089   0.0099   0.0189   0.0663  -0.0020  -0.0305
  28 C   :1s     0.0715  -0.0394   0.0041  -0.0290   0.0008  -0.0023  -0.0058
  29 C   :1s    -0.1481   0.0821  -0.0108   0.0619  -0.0006  -0.0046   0.0097
  30 C   :1s    -0.1380   0.0700   0.0060   0.1052  -0.0114   0.0595   0.0513
  31 C   :2px   -0.1965  -0.0985   0.3017  -0.0417   0.0319   0.1910  -0.0797
  32 C   :2py   -0.0178   0.1012   0.1127   0.1611  -0.0190   0.0394   0.3236
  33 C   :2pz    0.0415   0.0280  -0.0589   0.0238   0.1422  -0.0371   0.0360
  34 C   :2px   -0.0939  -0.0225   0.1321  -0.0170   0.0221   0.0627  -0.0848
  35 C   :2py   -0.0040   0.0614   0.0400   0.0579  -0.0067   0.0061   0.1794
  36 C   :2pz    0.0200   0.0083  -0.0257   0.0102   0.0741  -0.0122   0.0217
  37 C   :1s    -0.0254   0.0234   0.0113   0.0110  -0.0007  -0.0004  -0.0140
  38 C   :1s     0.0483  -0.0409  -0.0210  -0.0163   0.0015   0.0020   0.0345
  39 C   :1s     0.0626  -0.0789  -0.0480  -0.0585   0.0024   0.0028   0.0047
  40 C   :2px   -0.0802  -0.0501   0.1892  -0.0739   0.0855  -0.3640   0.0418
  41 C   :2py    0.0958  -0.1397  -0.0586  -0.1794  -0.0141  -0.0467  -0.3033
  42 C   :2pz    0.0244   0.0023  -0.0405   0.0122   0.3822   0.0655   0.0415
  43 C   :2px   -0.0233  -0.0202   0.0684  -0.0470   0.0423  -0.1923   0.0372
  44 C   :2py    0.0309  -0.0379  -0.0300  -0.0769  -0.0087  -0.0171  -0.1234
  45 C   :2pz    0.0075   0.0048  -0.0183   0.0054   0.2025   0.0374   0.0325
  46 H   :1s    -0.1798  -0.0469  -0.0995   0.1013   0.0001   0.0017  -0.0632
  47 H   :1s    -0.0751  -0.0381  -0.0553   0.0796   0.0001   0.0106  -0.0492
  48 H   :1s    -0.1647  -0.0321   0.1489  -0.0302   0.0021   0.1231  -0.1397
  49 H   :1s    -0.0779  -0.0251   0.0988  -0.0292   0.0019   0.1022  -0.0959
  50 H   :1s     0.0555  -0.0354  -0.0673  -0.0327  -0.2193   0.0935  -0.1020
  51 H   :1s     0.0319  -0.0223  -0.0384  -0.0138  -0.1594   0.0700  -0.0828
  52 H   :1s     0.0029  -0.0794   0.0842  -0.1006   0.0394  -0.2518  -0.0460
  53 H   :1s    -0.0041  -0.0512   0.0721  -0.0636   0.0306  -0.2090  -0.0507
  54 H   :1s     0.0676  -0.0274  -0.0870  -0.0122   0.1856   0.1424  -0.0340
  55 H   :1s     0.0388  -0.0217  -0.0475   0.0080   0.1323   0.1054  -0.0455
  56 H   :1s     0.0590  -0.2160   0.0326  -0.0843  -0.0007   0.0848   0.1654
  57 H   :1s     0.0088  -0.1234   0.0259  -0.0584   0.0020   0.0701   0.1137

    Orbital        17       18       19       20       21       22       23
   1 O   :1s     0.0011   0.0002  -0.0006  -0.0000   0.0110   0.0011  -0.0184
   2 O   :1s    -0.0015   0.0051   0.0015  -0.0005  -0.0284  -0.0037   0.0332
   3 O   :1s    -0.0108  -0.0264   0.0037   0.0056  -0.0925   0.0005   0.2640
   4 O   :2px    0.0497  -0.4877  -0.0464  -0.0663  -0.0650   0.0433   0.0015
   5 O   :2py   -0.0709  -0.2000   0.0057   0.0045  -0.0153  -0.0122   0.0040
   6 O   :2pz    0.3940   0.1026  -0.2324  -0.2855  -0.0010   0.2125  -0.0008
   7 O   :2px    0.0339  -0.3836  -0.0396  -0.0831  -0.1029   0.0697  -0.0159
   8 O   :2py   -0.0461  -0.1506   0.0045   0.0043  -0.0105  -0.0207  -0.1198
   9 O   :2pz    0.2810   0.0810  -0.1943  -0.3618  -0.0027   0.3494  -0.0001
  10 C   :1s     0.0083  -0.0032  -0.0000   0.0003   0.0377   0.0036   0.0262
  11 C   :1s    -0.0142   0.0279   0.0000  -0.0002  -0.0586  -0.0042   0.0102
  12 C   :1s    -0.0333  -0.0870   0.0003  -0.0037  -0.5245  -0.0507  -0.7444
  13 C   :2px    0.0465   0.1904  -0.0040   0.0633   0.0392  -0.0761   0.1178
  14 C   :2py    0.0344   0.0637   0.0021  -0.0070   0.0992   0.0163   0.0660
  15 C   :2pz    0.2956  -0.0449  -0.0235   0.2802   0.0200  -0.3389  -0.0120
  16 C   :2px    0.0346  -0.0469  -0.0071   0.0854   0.1002  -0.1371   0.2962
  17 C   :2py    0.0124   0.0539  -0.0002  -0.0162   0.2811   0.0268   0.0287
  18 C   :2pz    0.1900   0.0097  -0.0452   0.3692   0.0270  -0.6482  -0.0472
  19 C   :1s    -0.0074  -0.0287   0.0002  -0.0003   0.0341   0.0019   0.0242
  20 C   :1s     0.0159   0.0514  -0.0009  -0.0007  -0.0402   0.0035   0.0154
  21 C   :1s     0.0254   0.2279  -0.0012   0.0120  -0.5682  -0.0642  -0.6987
  22 C   :2px    0.0218  -0.2245   0.0791   0.0345  -0.0679   0.0600  -0.0332
  23 C   :2py   -0.0706   0.0650  -0.0236  -0.0106   0.1612  -0.0019   0.0976
  24 C   :2pz    0.1043   0.0528   0.3624   0.1599   0.0035   0.2908  -0.0018
  25 C   :2px    0.0122  -0.2094   0.0730   0.0757  -0.1281   0.1304  -0.2513
  26 C   :2py   -0.0589   0.0661  -0.0193  -0.0091   0.4968  -0.0130   0.3782
  27 C   :2pz    0.0512   0.0516   0.3231   0.3058   0.0081   0.6639   0.0454
  28 C   :1s    -0.0011   0.0090  -0.0000   0.0012   0.0508   0.0041   0.0023
  29 C   :1s     0.0005  -0.0179  -0.0004  -0.0007  -0.0635   0.0006   0.0592
  30 C   :1s     0.0219  -0.0097  -0.0013  -0.0261  -0.8564  -0.0814  -0.1427
  31 C   :2px   -0.0318   0.1020   0.0685  -0.0691  -0.1563  -0.0586  -0.0040
  32 C   :2py    0.1159  -0.0094  -0.0218   0.0235   0.0818   0.0179  -0.0216
  33 C   :2pz    0.0352  -0.0208   0.3085  -0.3202   0.0563  -0.1780   0.0113
  34 C   :2px   -0.0354   0.0909   0.0558  -0.1116  -0.4854  -0.1609   0.0473
  35 C   :2py    0.0615  -0.0612  -0.0175   0.0442   0.2580   0.0490  -0.4925
  36 C   :2pz    0.0416  -0.0242   0.2479  -0.5333   0.1662  -0.3555  -0.0004
  37 C   :1s    -0.0040  -0.0012  -0.0000  -0.0014   0.0466   0.0006  -0.1252
  38 C   :1s     0.0108   0.0011  -0.0007  -0.0002  -0.0325   0.0004   0.0565
  39 C   :1s    -0.0061   0.0498   0.0034   0.0231  -0.7833  -0.0123   2.5839
  40 C   :2px    0.0117  -0.0883  -0.0241   0.0031  -0.0937  -0.0203  -0.0020
  41 C   :2py   -0.0960   0.0523   0.0080  -0.0012  -0.0259   0.0056   0.1319
  42 C   :2pz   -0.1766   0.0262  -0.1080   0.0245   0.0176  -0.0855  -0.0044
  43 C   :2px    0.0148  -0.0318  -0.0193  -0.0016  -0.2370  -0.0601  -0.1446
  44 C   :2py   -0.0371   0.0323   0.0067   0.0046  -0.1613   0.0346   0.3793
  45 C   :2pz   -0.1200   0.0191  -0.0857   0.0104   0.0488  -0.5018  -0.0212
  46 H   :1s    -0.0283  -0.1861  -0.0018  -0.0017   0.0176  -0.0011   0.0101
  47 H   :1s    -0.0224  -0.2325  -0.0020  -0.0035   0.6854   0.0447   0.6832
  48 H   :1s    -0.0578   0.0773   0.0005   0.0013   0.0436   0.0039   0.0398
  49 H   :1s    -0.0385   0.0586  -0.0005   0.0089   1.2629   0.1371  -0.0494
  50 H   :1s     0.0643   0.0364   0.0903  -0.0738  -0.0058  -0.0696  -0.0114
  51 H   :1s     0.0298   0.0203   0.0952  -0.1770   0.1870  -0.6732  -1.2045
  52 H   :1s    -0.0108  -0.0519  -0.0144   0.0102   0.0338   0.0103   0.0195
  53 H   :1s    -0.0155  -0.0676  -0.0159   0.0188   0.7978   0.0740  -0.9821
  54 H   :1s    -0.1180   0.0513  -0.0753   0.0628  -0.0189   0.0618  -0.0203
  55 H   :1s    -0.0705   0.0254  -0.0812   0.1248   0.0291   0.6002  -1.1118
  56 H   :1s     0.0572  -0.0571  -0.0003   0.0031   0.0389   0.0001  -0.0092
  57 H   :1s     0.0358  -0.0615  -0.0003   0.0095   1.0713   0.0769   0.6943

    Orbital        24       25       26       27       28       29
   1 O   :1s     0.0009  -0.0081  -0.0149   0.0095   0.0516  -0.0699
   2 O   :1s     0.0118   0.0439   0.0017  -0.0191  -0.0747   0.0737
   3 O   :1s    -0.1140  -0.1169   0.4082  -0.1151  -0.9477   1.5522
   4 O   :2px   -0.0232   0.0285  -0.0001  -0.0376  -0.0928  -0.0370
   5 O   :2py   -0.0609  -0.0641  -0.0263   0.0051   0.0675  -0.1600
   6 O   :2pz    0.0043  -0.0080   0.0213  -0.1175   0.0295  -0.0147
   7 O   :2px   -0.1218  -0.0384   0.0778  -0.0532  -0.2672   0.0636
   8 O   :2py   -0.0748  -0.0802  -0.1482   0.0431   0.3556  -0.6947
   9 O   :2pz    0.0291   0.0015   0.0010  -0.1335   0.0777  -0.0485
  10 C   :1s     0.0693   0.0729  -0.0040  -0.0032  -0.0461   0.0145
  11 C   :1s    -0.0657  -0.0842   0.0299  -0.0019   0.0220   0.0560
  12 C   :1s    -1.4456  -1.1143  -0.3297   0.0720   0.8626  -0.8065
  13 C   :2px    0.1234   0.0293  -0.0089   0.0049   0.1706   0.1307
  14 C   :2py    0.1830   0.1063  -0.0428   0.0069   0.0663  -0.0818
  15 C   :2pz   -0.0333   0.0025  -0.0016   0.0781  -0.0416  -0.0312
  16 C   :2px    0.3080   0.2344  -0.0608  -0.0452   0.0091   1.3117
  17 C   :2py    0.7874   0.7668  -0.4792   0.0431   0.9194  -1.3420
  18 C   :2pz   -0.0673  -0.0116  -0.0371   0.3135   0.0008  -0.2927
  19 C   :1s     0.0001  -0.0857   0.0438   0.0010   0.0217   0.0444
  20 C   :1s     0.0035   0.1029  -0.0650  -0.0051  -0.0731   0.0411
  21 C   :1s    -0.1548   1.6054  -0.4690   0.1286  -0.0673  -2.1806
  22 C   :2px   -0.0494  -0.0230  -0.0405  -0.0331   0.0774   0.0391
  23 C   :2py    0.0628  -0.1727  -0.0022   0.0276  -0.0128  -0.0078
  24 C   :2pz    0.0235  -0.0118   0.0340  -0.1683  -0.0059  -0.0346
  25 C   :2px   -0.6026  -0.0360  -0.3861  -0.1019   0.2344  -0.0313
  26 C   :2py    0.0028  -1.2115   0.4347   0.1620   0.4640  -0.3013
  27 C   :2pz    0.1750  -0.0876   0.1510  -0.4156   0.0079  -0.0659
  28 C   :1s    -0.0527   0.0265  -0.0939  -0.0115   0.0596   0.0127
  29 C   :1s     0.0064  -0.0419   0.1327   0.0239  -0.0682  -0.0033
  30 C   :1s     1.4314  -0.0159   1.6739   0.1636  -1.3925  -0.2017
  31 C   :2px    0.1315   0.0092   0.0764   0.0527   0.1817  -0.0855
  32 C   :2py    0.0094   0.0027   0.0057   0.0064  -0.1987  -0.2166
  33 C   :2pz   -0.0369   0.0038  -0.0348   0.1188  -0.0596   0.0148
  34 C   :2px    0.3663  -0.1385   0.7943   0.3193   0.9549  -0.6218
  35 C   :2py   -0.1664   0.3790  -0.0116   0.0863  -1.4790  -1.3081
  36 C   :2pz   -0.1470   0.0950  -0.2148   0.5681  -0.3211   0.1065
  37 C   :1s     0.0549  -0.0092   0.0459   0.0132  -0.0531  -0.0157
  38 C   :1s    -0.0466   0.0365  -0.0337  -0.0101  -0.0044   0.0057
  39 C   :1s    -0.8504  -0.1396  -0.7171  -0.2464   1.3898   0.4065
  40 C   :2px    0.1286  -0.1550  -0.2313  -0.0620  -0.0498  -0.0460
  41 C   :2py    0.0458  -0.0292   0.0460   0.0299  -0.1466  -0.1609
  42 C   :2pz   -0.0016   0.0065   0.0598  -0.3252  -0.0022  -0.0429
  43 C   :2px    0.5838  -0.6536  -1.2793  -0.2981  -0.4638   0.3427
  44 C   :2py    0.1739   0.0444   0.3826   0.1988  -1.5831  -1.1383
  45 C   :2pz    0.0122   0.0278   0.3464  -1.4305  -0.0018  -0.2800
  46 H   :1s     0.0015   0.0157  -0.0167  -0.0034  -0.0282   0.0008
  47 H   :1s     1.6084   1.3039  -0.3304  -0.0657   0.4189   0.2409
  48 H   :1s    -0.0116   0.0307   0.0274  -0.0002  -0.0080  -0.0394
  49 H   :1s    -1.0872   0.3849  -1.4378  -0.2380  -1.1767   0.0917
  50 H   :1s     0.0112   0.0021  -0.0239  -0.0232   0.0247   0.0571
  51 H   :1s     0.7026  -0.4708  -0.3917  -1.5769  -0.0453   0.2517
  52 H   :1s    -0.0398   0.0117   0.0251  -0.0092   0.0712  -0.0023
  53 H   :1s    -0.4853   0.7967   1.6074   0.2472   0.6784   0.2476
  54 H   :1s     0.0189   0.0044  -0.0364   0.0262   0.0255   0.0564
  55 H   :1s     0.6575  -0.4430  -0.8278   1.4774  -0.1747   0.6198
  56 H   :1s     0.0003  -0.0041   0.0135   0.0117  -0.0078  -0.1188
  57 H   :1s     0.3137  -1.9816   0.7315   0.1506   0.3528   0.0439

  Total CPU  time used in SIRIUS :   0.29 seconds
  Total wall time used in SIRIUS :   0.55 seconds

 
     Date and time (Linux)  : Tue Mar 26 12:42:18 2024
     Host name              : node103                                 


                     .---------------------------------------.
                     | End of Wave Function Section (SIRIUS) |
                     `---------------------------------------'



        *****************************************************************
        ******** Output from **PROPE input processing for ABACUS ********
        *****************************************************************



 The following molecular properties will be calculated in this run:
 ------------------------------------------------------------------

 Default print level:        0

      The molecular gradient
      The molecular Hessian
      Vibrational analysis
      Dipole moment gradient
      Natural orbital connection is used
      for perturbation dependent basis sets.

 Center of mass dipole origin  :   -0.647744    4.626760    0.141373

 Center of mass gauge origin   :   -0.647744    4.626760    0.141373


                 .------------------------------------------------.
                 | Starting in Static Property Section (ABACUS) - |
                 `------------------------------------------------'


 
     Date and time (Linux)  : Tue Mar 26 12:42:18 2024
     Host name              : node103                                 
  Total CPU  time used in TWOINT:   1.58 seconds
  Total wall time used in TWOINT:   1.59 seconds


   ***************************************************************************
   ************************ FINAL RESULTS from ABACUS ************************
   ***************************************************************************


 
     Date and time (Linux)  : Tue Mar 26 12:42:21 2024
     Host name              : node103                                 


                             Molecular geometry (au)
                             -----------------------

 O         -3.5448780740            5.4338730414            0.7632006941
 C         -2.7270353453            3.2874929721            0.5239854581
 C         -0.1137482346            2.6295125289           -0.0887615501
 C          1.7718821606            4.2775358009           -0.3906586343
 C          1.6291258461            7.1030527375           -0.1734810795
 H         -4.0015916662            1.7010752968            0.7731211349
 H          3.5994383984            3.5093697283           -0.8453678089
 H          0.5003480628            7.8921973127           -1.6905573434
 H          3.4959041564            7.9301620245           -0.2560393020
 H          0.7175532021            7.6736721155            1.5642976491
 H          0.2607115894            0.6452895014           -0.2979037923





                        Molecular wave function and energy
                        ----------------------------------

     Spatial symmetry   1 ( A   )
     Spin multiplicity  1
     2 * M_S            0
     State number       1
     Total charge       0

     Total energy       -229.6985384600 au (Hartrees)
                         -6250.41518250 eV
                           -603073.4198 kJ/mol
                           -144138.0066 kcal/mol


                   Scalar Breit-Pauli relativistic corrections
                   -------------------------------------------

     Darwin correction:                          0.4328807171 au
     Mass-velocity correction:                  -0.5427307862 au

     Total relativistic correction:             -0.1098500691 au ( 0.0478%)
     Non-relativistic + relativistic energy:  -229.8083885292 au



      (Note that these corrections are NOT included in the results below.)


                             Molecular gradient (au)
                             -----------------------

 O          0.0000014329            0.0000146354            0.0000001521
 C          0.0000049922           -0.0000140576            0.0000025659
 C          0.0000020750            0.0000011537            0.0000004041
 C         -0.0000006659           -0.0000024804            0.0000056959
 C         -0.0000098198           -0.0000062354            0.0000047647
 H          0.0000040957            0.0000043502           -0.0000012925
 H         -0.0000024786            0.0000004675           -0.0000085916
 H          0.0000068756            0.0000026473           -0.0000080881
 H         -0.0000026702            0.0000007314            0.0000050618
 H         -0.0000037964           -0.0000005556           -0.0000009400
 H         -0.0000000405           -0.0000006565            0.0000002678





                              Molecular Hessian (au)
                              ----------------------

           O    x      O    y      O    z      C    x      C    y      C    z

 O    x    0.190858
 O    y   -0.253470    0.774655
 O    z   -0.042350    0.076391    0.039181

 C    x   -0.188043    0.197434    0.030407    0.678138
 C    y    0.212807   -0.708519   -0.064166   -0.091822    1.049778
 C    z    0.031223   -0.060736   -0.082668   -0.103687    0.043214    0.255191

 C    x   -0.019784    0.048672    0.011409   -0.253582   -0.002565    0.034775
 C    y    0.054659   -0.003530   -0.012663    0.036312   -0.149011   -0.011083
 C    z    0.011335   -0.010927    0.019664    0.037303   -0.002648   -0.108342

 C    x    0.006987   -0.006672   -0.002292   -0.041261   -0.023485    0.009210
 C    y    0.002631   -0.018408   -0.001376   -0.013469    0.033015    0.004155
 C    z   -0.002103    0.000677   -0.001556    0.010939    0.006605    0.006572

 C    x   -0.004004   -0.006296    0.000401   -0.005449    0.004037   -0.000644
 C    y   -0.002378    0.002192    0.000189    0.005173   -0.003014   -0.000392
 C    z   -0.000585   -0.000442   -0.001144   -0.002503    0.001116   -0.008768

 H    x    0.024335    0.015982    0.000256   -0.194329   -0.127040    0.024178
 H    y   -0.016393   -0.052988    0.001812   -0.128927   -0.207198    0.025804
 H    z   -0.000858   -0.005483    0.023957    0.024011    0.025353   -0.079362

 H    x    0.000476    0.000607   -0.000518   -0.000070   -0.005379    0.003192
 H    y    0.000304    0.001272    0.000166   -0.002435   -0.004088   -0.000846
 H    z   -0.000478   -0.000251   -0.001887    0.002971   -0.000033    0.015342

 H    x   -0.000024    0.002329    0.000458    0.002652   -0.002837   -0.000887
 H    y   -0.000676    0.001859   -0.000898    0.002189   -0.002527    0.002147
 H    z   -0.000862   -0.001936    0.000725   -0.000678    0.001202    0.000363

 H    x   -0.001501   -0.001456    0.000319    0.000289    0.001475   -0.000071
 H    y    0.000231    0.001444   -0.000016    0.001353   -0.000516   -0.000501
 H    z    0.000864    0.000924    0.001115    0.000490   -0.000790   -0.000557

 H    x   -0.001841    0.002420   -0.000245    0.003375   -0.003629   -0.000693
 H    y   -0.000358    0.001974    0.001414    0.000802   -0.003032   -0.002871
 H    z    0.001545    0.002158    0.000443    0.000500   -0.001128   -0.000193

 H    x   -0.007458    0.000451    0.002160   -0.001719    0.038439    0.003404
 H    y    0.002641    0.000049   -0.000851   -0.006611   -0.004884    0.001108
 H    z    0.002271   -0.000374    0.002167    0.000246   -0.008724    0.002425


           C    x      C    y      C    z      C    x      C    y      C    z

 C    x    0.775529
 C    y    0.127430    0.860881
 C    z   -0.128651    0.016262    0.181053

 C    x   -0.398064   -0.232129    0.053862    0.850601
 C    y   -0.206051   -0.337902    0.028214    0.135671    0.748901
 C    z    0.054843    0.032689   -0.089260   -0.131353    0.006827    0.239110

 C    x    0.020020   -0.025482   -0.003023   -0.113479   -0.004006    0.004026
 C    y   -0.005492   -0.022824   -0.000686    0.010187   -0.242101   -0.012799
 C    z   -0.000534    0.005042    0.006549    0.005436   -0.014005   -0.093870

 H    x   -0.015520   -0.028944    0.008062   -0.005457    0.004048    0.002015
 H    y    0.009240    0.006669   -0.002685    0.001461    0.001348   -0.000351
 H    z    0.009350    0.006074    0.022480    0.001974   -0.001157    0.001354

 H    x   -0.022978    0.014410    0.009242   -0.311677    0.099271    0.062423
 H    y   -0.028169    0.011118    0.005806    0.106241   -0.111925   -0.026819
 H    z    0.006852   -0.002962    0.013788    0.062768   -0.025296   -0.074394

 H    x   -0.003157   -0.002451    0.001165    0.000517    0.003930    0.001114
 H    y   -0.001621   -0.000737   -0.001389    0.022434   -0.018585    0.030390
 H    z    0.000319    0.000637    0.001640    0.003584   -0.003671    0.004585

 H    x    0.000822    0.000623   -0.000292    0.004648    0.007322    0.000517
 H    y    0.003359   -0.006379   -0.001134   -0.041490   -0.019759    0.002147
 H    z   -0.000187   -0.000896    0.001563   -0.003253   -0.000973   -0.000890

 H    x   -0.003737   -0.002564   -0.000328   -0.000059    0.005530   -0.000177
 H    y   -0.001620    0.000018    0.001651    0.019829   -0.013543   -0.035853
 H    z    0.000267   -0.000778    0.002008   -0.000180    0.001783    0.000830

 H    x   -0.079550    0.058134    0.011326    0.007244   -0.034879   -0.002244
 H    y    0.056817   -0.358302   -0.032464    0.007956   -0.021036   -0.003513
 H    z    0.011559   -0.032320   -0.051140    0.000243    0.005500    0.007516


           C    x      C    y      C    z      H    x      H    y      H    z

 C    x    0.659130
 C    y    0.016219    0.552323
 C    z   -0.013045    0.000180    0.609594

 H    x    0.000330    0.000349    0.000576    0.192181
 H    y    0.000249   -0.000123   -0.000137    0.135814    0.251190
 H    z    0.000032   -0.000101    0.002652   -0.034003   -0.025117    0.034350

 H    x    0.001815   -0.003691    0.001947   -0.001605    0.000202   -0.000242
 H    y    0.029229   -0.011088   -0.009110   -0.001055   -0.000026    0.000461
 H    z    0.002940   -0.001025    0.012238   -0.000504    0.000083   -0.002865

 H    x   -0.141024    0.055119   -0.119831   -0.000035    0.000072   -0.000382
 H    y    0.057019   -0.095736    0.082095   -0.000123   -0.000033   -0.000206
 H    z   -0.117718    0.080447   -0.209474   -0.000085   -0.000181   -0.000519

 H    x   -0.301676   -0.104788    0.011228   -0.000077   -0.000229    0.000003
 H    y   -0.097898   -0.103158    0.003539   -0.000126    0.000081    0.000054
 H    z    0.012156    0.003882   -0.062967   -0.000080    0.000061   -0.000310

 H    x   -0.112589    0.030084    0.113972    0.000179    0.000096    0.000548
 H    y    0.030668   -0.077841   -0.068254   -0.000008    0.000013    0.000217
 H    z    0.111412   -0.069031   -0.266741   -0.000177    0.000231   -0.000537

 H    x   -0.003076   -0.000783    0.003337   -0.000002   -0.001585   -0.000432
 H    y   -0.003738    0.001369   -0.000022    0.001105    0.001068   -0.000095
 H    z    0.003463   -0.000665    0.011927   -0.000236    0.000479   -0.001193


           H    x      H    y      H    z      H    x      H    y      H    z

 H    x    0.330235
 H    y   -0.104976    0.119264
 H    z   -0.072560    0.029294    0.049771

 H    x    0.000294    0.000738   -0.000104    0.150955
 H    y   -0.000125   -0.003094   -0.001382   -0.064939    0.107035
 H    z    0.000044   -0.000306   -0.001672    0.132061   -0.087653    0.228779

 H    x    0.001978   -0.000210   -0.000099   -0.018604   -0.008660    0.002634
 H    y    0.000003    0.002027    0.000204    0.013633    0.006648   -0.001687
 H    z   -0.000323    0.000045    0.000112   -0.027562   -0.012548    0.002615

 H    x    0.000738    0.000712    0.000607    0.008386   -0.004830   -0.019418
 H    y    0.000071   -0.004814    0.000585   -0.005721    0.004989    0.013047
 H    z   -0.000844    0.000441   -0.001071    0.013976   -0.008057   -0.026689

 H    x    0.000792   -0.000378   -0.002395    0.000040   -0.000667    0.000117
 H    y   -0.000398    0.001358    0.000785    0.000126    0.000182    0.000098
 H    z   -0.002361    0.000868   -0.009364   -0.000009   -0.002499   -0.000355


           H    x      H    y      H    z      H    x      H    y      H    z

 H    x    0.328087
 H    y    0.112306    0.116255
 H    z   -0.012806   -0.004041    0.057448

 H    x   -0.013885    0.009726    0.030690    0.119494
 H    y   -0.006410    0.004536    0.014398   -0.037702    0.087589
 H    z   -0.001407    0.000828    0.001468   -0.124916    0.073612    0.290405

 H    x   -0.000080   -0.001097    0.000011   -0.000061    0.000449   -0.000176
 H    y    0.000029   -0.001179   -0.000061    0.000156    0.000111   -0.000058
 H    z   -0.000026    0.000607    0.000403   -0.000040    0.002055    0.000076


           H    x      H    y      H    z

 H    x    0.083871
 H    y   -0.058084    0.381268
 H    z   -0.015109    0.035076    0.037541





                                  Dipole moment
                                  -------------

                 au               Debye          C m (/(10**-30)
              1.252341           3.183134          10.617792


                             Dipole moment components
                             ------------------------

                 au               Debye          C m (/(10**-30)

      x      0.95494146         2.42721892         8.09633082
      y     -0.77836174        -1.97839808        -6.59922564
      z     -0.22494165        -0.57174461        -1.90713474


   Units:   1 a.u. =   2.54175 Debye 
            1 a.u. =   8.47835 (10**-30) C m (SI)




                           Dipole moment gradient (au)
                           ---------------------------

                       Ex             Ey             Ez

        O    x    -0.90659535     0.06778264     0.10534847
        O    y     0.43676725    -0.84260523    -0.10276556
        O    z     0.11759931    -0.02089971    -0.46197053

        C    x     1.50647512     0.16809441    -0.25088561
        C    y    -0.14250563     0.85845182     0.03537709
        C    z    -0.27144917    -0.03728618     0.39290572

        C    x    -0.91859825    -0.26159975     0.11735525
        C    y    -0.43526458    -0.10572529     0.11499873
        C    z     0.11398263     0.07663463    -0.34564494

        C    x     0.30659597     0.02957506    -0.08010829
        C    y     0.36779090     0.37481332    -0.06252002
        C    z    -0.09252397     0.01158251    -0.05252761

        C    x     0.21439750     0.16735654    -0.00752769
        C    y     0.02749056    -0.08309701    -0.00538311
        C    z     0.03812568    -0.01259808     0.05633856

        H    x    -0.09386912    -0.11668367     0.03315008
        H    y    -0.18744882    -0.12018408     0.03588273
        H    z     0.02888358     0.02020026     0.06345624

        H    x    -0.07789920     0.06211110     0.05176479
        H    y     0.04666858    -0.00863789    -0.02308370
        H    z     0.05000980    -0.02421200     0.12353655

        H    x     0.02357980     0.01907053    -0.07362369
        H    y    -0.03307699     0.01486176     0.04017616
        H    z    -0.06965054     0.05023175    -0.01139795

        H    x    -0.14250159    -0.13163717     0.00953595
        H    y    -0.06719224     0.00227660     0.00183022
        H    z     0.00597363     0.00059953     0.08786564

        H    x     0.04707653     0.00266538     0.06643385
        H    y    -0.03297806     0.03713155    -0.01106359
        H    z     0.04060419    -0.04849247    -0.02078190

        H    x     0.04132708    -0.00671614     0.02855712
        H    y     0.01975492    -0.12728108    -0.02344878
        H    z     0.03843998    -0.01575958     0.16820880





                            +-------------------------+
                            ! APT Population Analysis !
                            +-------------------------+


      [ Reference : J. Cioslowski, J.Am.Chem.Soc. 111 (1989) 8333 ]

                            O        -0.737057
                            C         0.919278
                            C        -0.456656
                            C         0.209627
                            C         0.062546
                            H        -0.050199
                            H         0.012333
                            H         0.009015
                            H        -0.017453
                            H         0.021142
                            H         0.027418



   Interatomic separations (in Angstrom):
   --------------------------------------

            O           C           C           C           C           H     
            ------      ------      ------      ------      ------      ------
 O     :    0.000000
 C     :    1.222049    0.000000
 C     :    2.387928    1.462452    0.000000
 C     :    2.943312    2.485275    1.334820    0.000000
 C     :    2.919306    3.086564    2.541007    1.501511    0.000000
 H     :    1.990049    1.084914    2.163821    3.401812    4.159427    0.000000
 H     :    4.006835    3.427362    2.058653    1.076300    2.197718    4.222327
 H     :    2.821470    3.198066    2.929115    2.141195    1.084285    4.255426
 H     :    3.989692    4.129203    3.394764    2.138560    1.081360    5.186831
 H     :    2.583056    3.002166    2.843175    2.147391    1.081445    4.049786
 H     :    3.285120    2.154952    1.074256    2.082395    3.493802    2.391799

            H           H           H           H           H     
            ------      ------      ------      ------      ------
 H     :    0.000000
 H     :    2.875526    0.000000
 H     :    2.360714    1.757684    0.000000
 H     :    2.967791    1.730095    1.762934    0.000000
 H     :    2.345740    3.907127    4.218096    3.855181    0.000000


  Max    interatomic separation is    5.1868 Angstrom (    9.8017 Bohr)
  between atoms    9 and    6, "H     " and "H     ".

  Min HX interatomic separation is    1.0743 Angstrom (    2.0300 Bohr)

  Min YX interatomic separation is    1.2220 Angstrom (    2.3093 Bohr)


  Bond distances (Angstrom):
  --------------------------

                  atom 1     atom 2       distance
                  ------     ------       --------
  bond distance:  C          O            1.222049
  bond distance:  C          C            1.462452
  bond distance:  C          C            1.334820
  bond distance:  C          C            1.501511
  bond distance:  H          C            1.084914
  bond distance:  H          C            1.076300
  bond distance:  H          C            1.084285
  bond distance:  H          C            1.081360
  bond distance:  H          C            1.081445
  bond distance:  H          C            1.074256


  Bond angles (degrees):
  ----------------------

                  atom 1     atom 2     atom 3         angle
                  ------     ------     ------         -----
  bond angle:     O          C          C            125.390
  bond angle:     O          C          H            119.107
  bond angle:     C          C          H            115.504
  bond angle:     C          C          C            125.300
  bond angle:     C          C          H            115.466
  bond angle:     C          C          H            119.234
  bond angle:     C          C          C            127.144
  bond angle:     C          C          H            116.853
  bond angle:     C          C          H            116.002
  bond angle:     C          C          H            110.767
  bond angle:     C          C          H            110.732
  bond angle:     C          C          H            111.443
  bond angle:     H          C          H            108.509
  bond angle:     H          C          H            106.041
  bond angle:     H          C          H            109.197




   ****************************************************************************
   *************** ABACUS - ROTATIONAL AND VIBRATIONAL ANALYSIS ***************
   ****************************************************************************


 Norm of (unprojected) molecular gradient (au) :     0.00003058


 Conversion factors used:

    Hartree to (cm)-1      : 219474.62934
    a.m.u.  to a.u.        :   1822.88848
    Bohr    to Angstrom    :  0.529177211
    a.u.    to A**4amu-1   :   142.943572
    a.u.    to km (mol)-1  :      974.864


 Vibrational analysis for parent molecule only.
  Norm of projected gradient     0.000031


                         Isotopic Molecule No. 1
                         ======================= 


                                 Isotopic Masses
                                 ---------------

                           O          15.994915
                           C          12.000000
                           C          12.000000
                           C          12.000000
                           C          12.000000
                           H           1.007825
                           H           1.007825
                           H           1.007825
                           H           1.007825
                           H           1.007825
                           H           1.007825

                       Total mass:    70.041865 amu
                       Natural abundance:  95.357 %

 Center-of-mass coordinates (a.u.):   -0.647744    4.626760    0.141373
 Center-of-mass coordinates (Angs):   -0.342771    2.448376    0.074811


 Principal moments of inertia (u*A**2) and principal axes
 --------------------------------------------------------

   IA      55.297091          0.935179    0.307139   -0.176369
   IB     115.644536         -0.290681    0.950095    0.113244
   IC     167.905465          0.202349   -0.054637    0.977788


 Rotational constants
 --------------------

               A                   B                   C

           9139.3416           4370.1071           3009.9021 MHz
            0.304856            0.145771            0.100400 cm-1


  Vibrational Frequencies and IR Intensities
  ------------------------------------------

  mode   irrep        frequency             IR intensity
  ============================================================
                  cm-1       hartrees     km/mol   (D/A)**2/amu
  ------------------------------------------------------------
   1      A      3360.74    0.015313     25.360   0.6002
   2      A      3328.82    0.015167     16.365   0.3873
   3      A      3292.49    0.015002     11.120   0.2632
   4      A      3270.23    0.014900     17.955   0.4249
   5      A      3213.69    0.014643    120.164   2.8438
   6      A      3205.01    0.014603     17.482   0.4137
   7      A      1889.85    0.008611     82.539   1.9533
   8      A      1821.71    0.008300    198.508   4.6978
   9      A      1643.28    0.007487      9.596   0.2271
  10      A      1636.36    0.007456      4.041   0.0956
  11      A      1598.39    0.007283     22.629   0.5355
  12      A      1577.61    0.007188     10.328   0.2444
  13      A      1558.12    0.007099     10.355   0.2451
  14      A      1394.14    0.006352     10.199   0.2414
  15      A      1237.47    0.005638      0.569   0.0135
  16      A      1224.96    0.005581     16.037   0.3795
  17      A      1160.75    0.005289     11.667   0.2761
  18      A      1116.75    0.005088      2.758   0.0653
  19      A      1094.02    0.004985     25.859   0.6120
  20      A       963.21    0.004389     29.280   0.6929
  21      A       892.65    0.004067     34.491   0.8163
  22      A       780.84    0.003558     46.110   1.0912
  23      A       459.55    0.002094      8.594   0.2034
  24      A       448.76    0.002045      6.856   0.1623
  25      A       238.22    0.001085      7.902   0.1870
  26      A       164.00    0.000747     14.346   0.3395
  27      A        17.90i   0.000082i



  Normal Coordinates (bohrs*amu**(1/2)):
  --------------------------------------


                1  3361     2  3329     3  3292     4  3270     5  3214 
  ----------------------------------------------------------------------

    O      x    0.000024   -0.000086    0.000295    0.000031   -0.000102
    O      y    0.000050    0.000088    0.000228   -0.000072    0.000864
    O      z   -0.000018   -0.000008    0.000093    0.000194    0.000051

    C      x   -0.006856   -0.002858   -0.001256    0.000811   -0.051765
    C      y   -0.004477   -0.002560   -0.001401    0.001039   -0.061990
    C      z    0.001455    0.000598    0.000204   -0.000232    0.010160

    C      x    0.010255    0.009265    0.001652   -0.000454    0.001271
    C      y   -0.074175   -0.034200   -0.002714    0.000343    0.007321
    C      z   -0.006984   -0.004284   -0.000152    0.000511    0.000176

    C      x    0.037894   -0.064137   -0.015692    0.005513   -0.000137
    C      y   -0.009661    0.025531    0.005446   -0.001137    0.000190
    C      z   -0.008972    0.015872    0.003518   -0.001893    0.000030

    C      x    0.005083   -0.017799    0.067088   -0.054142   -0.001920
    C      y    0.002225   -0.003092    0.002505   -0.005809    0.000954
    C      z   -0.001559    0.006588   -0.053569   -0.066339   -0.000336

    H      x    0.055018    0.026597    0.011058   -0.008883    0.598819
    H      y    0.057761    0.030029    0.014514   -0.010443    0.728421
    H      z   -0.011087   -0.005062   -0.003795   -0.000313   -0.117403

    H      x   -0.387504    0.741807    0.180375   -0.066187   -0.003581
    H      y    0.157121   -0.308616   -0.073271    0.027269   -0.000234
    H      z    0.095526   -0.183401   -0.048886    0.011795    0.000850

    H      x   -0.000931    0.011967    0.033346    0.371447    0.013921
    H      y    0.002641   -0.012123   -0.008667   -0.263335   -0.009543
    H      z   -0.004751    0.024857   -0.000882    0.498210    0.018628

    H      x   -0.052039    0.155483   -0.518155    0.480598    0.002676
    H      y   -0.025168    0.069374   -0.222589    0.208893    0.001862
    H      z    0.002267   -0.006142    0.013849   -0.037886   -0.000166

    H      x   -0.009896    0.048826   -0.319594   -0.204306    0.007574
    H      y    0.008666   -0.033269    0.202522    0.112885   -0.004221
    H      z    0.022493   -0.099217    0.629324    0.335415   -0.014545

    H      x   -0.157212   -0.084003   -0.008393    0.001605    0.007935
    H      y    0.823223    0.423739    0.038201   -0.007887   -0.092689
    H      z    0.087067    0.045549    0.004253   -0.001180   -0.007587


                6  3205     7  1890     8  1822     9  1643    10  1636 
  ----------------------------------------------------------------------

    O      x   -0.000098    0.041596    0.030869    0.002300    0.003277
    O      y   -0.000088   -0.107050   -0.067558   -0.002631   -0.002324
    O      z    0.000046   -0.012238   -0.008535    0.000446   -0.001111

    C      x    0.001448   -0.074191   -0.080858   -0.006466   -0.003846
    C      y    0.001355    0.173431    0.097857    0.004656    0.009346
    C      z   -0.000322    0.022011    0.020468   -0.000142    0.001610

    C      x   -0.000742   -0.067151    0.145485    0.012876   -0.001383
    C      y    0.000328   -0.075111    0.073774   -0.000007   -0.013336
    C      z    0.000261    0.010286   -0.027015   -0.000237   -0.001018

    C      x   -0.001971    0.062557   -0.115103   -0.009919   -0.012433
    C      y   -0.000442    0.079894   -0.116444    0.005875    0.018264
    C      z    0.000237   -0.008283    0.017315   -0.015461    0.005525

    C      x   -0.005938   -0.006029    0.020507   -0.010409   -0.038057
    C      y    0.048842   -0.010250    0.021074   -0.018986   -0.061444
    C      z   -0.011422    0.001028   -0.000272   -0.054210    0.010691

    H      x   -0.014314    0.210026    0.047733    0.008815    0.038906
    H      y   -0.017962   -0.066857   -0.017985   -0.009754   -0.029360
    H      z    0.002586   -0.051245   -0.010526    0.000071   -0.009447

    H      x    0.025079   -0.004691   -0.028855   -0.015868   -0.023463
    H      y   -0.009235   -0.121762    0.143120   -0.025267   -0.002886
    H      z   -0.007310   -0.008133    0.016351    0.017606    0.008095

    H      x    0.378561   -0.019368   -0.015985   -0.242515    0.508876
    H      y   -0.248660   -0.003785   -0.024181   -0.260674    0.154667
    H      z    0.509361    0.013158    0.003751    0.020282   -0.280829

    H      x   -0.501036    0.018405   -0.010185   -0.021113   -0.271271
    H      y   -0.207002   -0.073698    0.087665    0.095767    0.523726
    H      z    0.017887   -0.006083   -0.016488    0.696026   -0.110719

    H      x    0.196474   -0.020019   -0.041846    0.434939    0.385877
    H      y   -0.109943    0.007934   -0.063217    0.353538   -0.027938
    H      z   -0.388527   -0.011934   -0.006014    0.076920    0.207424

    H      x    0.002571    0.165343   -0.083928   -0.035042   -0.027498
    H      y   -0.002122   -0.042784    0.038764   -0.011101   -0.019688
    H      z   -0.000811   -0.039711    0.023412    0.016102    0.002969


               11  1598    12  1578    13  1558    14  1394    15  1237 
  ----------------------------------------------------------------------

    O      x   -0.001422   -0.001184    0.003765    0.011272    0.007617
    O      y   -0.021264   -0.028655    0.078015   -0.020172   -0.005947
    O      z   -0.000326   -0.000353    0.001084   -0.002936    0.001944

    C      x    0.038394    0.029454   -0.046918   -0.004392   -0.014636
    C      y    0.019464    0.019237   -0.033783    0.003059   -0.002723
    C      z   -0.007699   -0.006070    0.010197   -0.000129   -0.014723

    C      x   -0.096247   -0.049698   -0.026926   -0.032768    0.009732
    C      y    0.015907    0.017819   -0.007419   -0.031152    0.014947
    C      z    0.022533    0.011715    0.006195    0.004893    0.060562

    C      x   -0.002015    0.004937   -0.009423    0.012686    0.000389
    C      y   -0.082473   -0.056361   -0.045276    0.059191   -0.011586
    C      z   -0.007133   -0.002929   -0.000424    0.003259   -0.136893

    C      x   -0.006645    0.027352    0.013042    0.046128   -0.014572
    C      y    0.064698   -0.077051   -0.003861   -0.034920    0.002192
    C      z   -0.002824   -0.005001   -0.002837   -0.014657    0.094622

    H      x   -0.083086   -0.159230    0.591687    0.011280    0.015434
    H      y    0.138490    0.191092   -0.583706   -0.015912   -0.015674
    H      z    0.022039    0.039970   -0.150195   -0.001314    0.063169

    H      x    0.215211    0.112826    0.086084    0.245324    0.153751
    H      y    0.436878    0.214630    0.186037    0.626007    0.000819
    H      z   -0.011053   -0.016568   -0.008537   -0.013620    0.455780

    H      x    0.056206   -0.074884   -0.035266   -0.049402    0.086350
    H      y   -0.262295    0.413410    0.068176   -0.054247   -0.273332
    H      z   -0.204697    0.300405    0.064989    0.044506   -0.134294

    H      x    0.054795   -0.116923   -0.013880   -0.002587    0.005020
    H      y   -0.061277    0.263153    0.061755    0.067321   -0.067432
    H      z    0.053680   -0.001201    0.010236    0.015135   -0.204031

    H      x    0.144877   -0.141261   -0.039931   -0.045188   -0.025364
    H      y   -0.256427    0.431322    0.071124   -0.103613    0.400268
    H      z    0.172780   -0.240020   -0.050294   -0.038916   -0.049888

    H      x    0.426520    0.254848    0.187720   -0.596145   -0.128805
    H      y    0.132596    0.088461    0.034104   -0.153901    0.016027
    H      z   -0.085630   -0.049779   -0.039751    0.119803   -0.204070


               16  1225    17  1161    18  1117    19  1094    20   963 
  ----------------------------------------------------------------------

    O      x   -0.022500    0.007508    0.005562    0.013027   -0.005777
    O      y    0.018296   -0.001474   -0.007787   -0.044830    0.030373
    O      z    0.005027    0.036606    0.013031   -0.008006    0.001911

    C      x    0.035358   -0.031417    0.005259    0.118989   -0.126840
    C      y    0.008638    0.006081    0.005222    0.029006   -0.031371
    C      z   -0.005418   -0.161654   -0.056218   -0.012144    0.028092

    C      x    0.006209    0.016843   -0.031855   -0.102948    0.029283
    C      y   -0.064906   -0.004674    0.006258    0.024529   -0.102339
    C      z    0.012558    0.088547   -0.047023    0.033253   -0.010872

    C      x   -0.094078   -0.000375    0.005515   -0.006451    0.108208
    C      y    0.066147    0.000332   -0.018542   -0.094975   -0.064990
    C      z   -0.019562    0.017525    0.006197   -0.005005   -0.025793

    C      x    0.117128   -0.000944    0.020343    0.008123    0.020619
    C      y   -0.019343    0.001112    0.018156    0.107160    0.135002
    C      z    0.004020   -0.025217    0.078849   -0.009731    0.000811

    H      x   -0.003015    0.153730    0.077201    0.200271   -0.228181
    H      y    0.041789   -0.016144   -0.014172   -0.048089    0.049303
    H      z   -0.007774    0.642325    0.186954   -0.104163    0.053295

    H      x   -0.110153   -0.036857   -0.096548   -0.070419    0.128013
    H      y   -0.080094   -0.005911   -0.017950   -0.290938   -0.036247
    H      z    0.170846   -0.118193   -0.409336    0.061211   -0.032824

    H      x   -0.180886   -0.014339   -0.001123   -0.060223   -0.054427
    H      y   -0.335469    0.094055   -0.351786    0.104856    0.064661
    H      z    0.052354    0.036388   -0.111048    0.040163    0.019766

    H      x   -0.103478    0.002106   -0.035958   -0.040173   -0.054986
    H      y    0.450039    0.001595    0.120419    0.226456    0.317711
    H      z    0.012215    0.047514   -0.156677    0.063585    0.046333

    H      x   -0.217874    0.012504   -0.072899   -0.050034   -0.053779
    H      y   -0.241549   -0.102921    0.298067   -0.041582    0.000294
    H      z   -0.094858    0.018632   -0.070134    0.013840    0.007940

    H      x    0.203123   -0.047061    0.049842   -0.397079   -0.017291
    H      y   -0.012401    0.018771   -0.043084   -0.021727   -0.119330
    H      z   -0.112523   -0.245568    0.570066   -0.023475   -0.032423


               21   893    22   781    23   460    24   449    25   238 
  ----------------------------------------------------------------------

    O      x   -0.076928    0.002647    0.099735    0.062892   -0.146768
    O      y    0.031915   -0.000424   -0.025795   -0.013587   -0.064866
    O      z    0.018003    0.020667   -0.018432   -0.021110    0.010997

    C      x    0.095777   -0.005656   -0.032894   -0.031246   -0.033062
    C      y    0.076275    0.002213   -0.075897   -0.045768   -0.019197
    C      z   -0.018956   -0.034246    0.023827   -0.028021    0.011159

    C      x    0.063424   -0.009738   -0.070904   -0.000732   -0.007780
    C      y   -0.167565   -0.002128   -0.028281   -0.029667    0.057930
    C      z   -0.021404   -0.044385   -0.080446    0.146651    0.008706

    C      x   -0.070209   -0.016656   -0.095800   -0.092426    0.024593
    C      y   -0.021181    0.002495    0.043008    0.036720    0.019337
    C      z    0.016068   -0.074098    0.096278   -0.095891   -0.007047

    C      x   -0.018997   -0.001820    0.049230    0.035313    0.159052
    C      y    0.051678    0.005423    0.076216    0.044011    0.027087
    C      z    0.008570   -0.014701   -0.023137    0.023683   -0.022853

    H      x    0.098310    0.050034   -0.053105   -0.134703    0.043777
    H      y    0.073106   -0.005119   -0.028304   -0.003117   -0.082584
    H      z   -0.016459    0.204762    0.212482   -0.293606    0.008483

    H      x   -0.005453    0.111656   -0.073295   -0.136980   -0.005450
    H      y    0.143539   -0.042960    0.023149    0.044635   -0.050725
    H      z   -0.006038    0.519311    0.215082   -0.292141   -0.012022

    H      x    0.091977    0.020090    0.091004    0.098522    0.097601
    H      y    0.144440    0.265606    0.057108    0.216199    0.069777
    H      z   -0.024792    0.114074   -0.062982    0.064111    0.046020

    H      x    0.088692    0.026364    0.110865    0.095346    0.190389
    H      y   -0.188595   -0.041796   -0.068196   -0.082235   -0.056306
    H      z   -0.044789    0.144274   -0.100436    0.076895   -0.145389

    H      x    0.098402    0.021706    0.112867    0.075982    0.305076
    H      y    0.222019   -0.220536    0.252872   -0.003387    0.077669
    H      z    0.012988    0.079578   -0.045800    0.057567    0.040946

    H      x    0.015564    0.131433    0.019211    0.064483   -0.002402
    H      y   -0.177165   -0.043760   -0.006389   -0.019508    0.057691
    H      z   -0.019436    0.603557   -0.122533    0.169463    0.006911


               26   164    27    18i
  ----------------------------------

    O      x   -0.004732   -0.029273
    O      y    0.013241   -0.012081
    O      z   -0.124620   -0.012846

    C      x    0.031867    0.008628
    C      y   -0.000354   -0.005833
    C      z    0.120286    0.064762

    C      x   -0.002990   -0.005852
    C      y   -0.006748    0.010743
    C      z   -0.017266   -0.020256

    C      x   -0.017914   -0.006119
    C      y    0.000825    0.006970
    C      z   -0.066555   -0.040689

    C      x   -0.006577    0.029795
    C      y   -0.009628    0.003357
    C      z    0.079463    0.012128

    H      x    0.094311    0.053563
    H      y    0.001212   -0.020364
    H      z    0.448440    0.203318

    H      x   -0.038874   -0.025371
    H      y    0.017568    0.004617
    H      z   -0.178137   -0.116117

    H      x   -0.164601    0.476651
    H      y    0.067903    0.071454
    H      z    0.241267   -0.291772

    H      x   -0.017028    0.080406
    H      y    0.000317   -0.058413
    H      z   -0.053601    0.511868

    H      x    0.165211   -0.421036
    H      y   -0.103620   -0.000377
    H      z    0.203953   -0.229854

    H      x   -0.016155   -0.014595
    H      y   -0.004133    0.013401
    H      z   -0.064445   -0.063437




  Dipole Gradient in Normal Coordinate Basis (D/(A*amu**(1/2)))
  -------------------------------------------------------------


  mode           dMA/dQi        dMB/dQi        dMC/dQi
  ----------------------------------------------------
   1            0.338955      -0.686974      -0.115499
   2           -0.600454      -0.095568       0.132740
   3            0.372948       0.292609      -0.196066
   4           -0.487326      -0.265999      -0.341574
   5           -1.320985      -1.015105       0.261366
   6            0.325663       0.539796      -0.127579
   7           -0.459120       1.313989       0.126458
   8           -2.119997       0.109783       0.437457
   9           -0.070202       0.052732       0.468380
  10            0.226983       0.196142      -0.075143
  11            0.714782      -0.115204      -0.106516
  12           -0.102435       0.483548      -0.010370
  13            0.076375      -0.487913      -0.034211
  14            0.158342       0.464485      -0.023352
  15           -0.088806       0.005027      -0.074534
  16            0.574234       0.174975      -0.138429
  17           -0.106153       0.036618      -0.513324
  18            0.232214       0.083820       0.065758
  19            0.714970       0.271302      -0.164896
  20           -0.785031      -0.226684       0.158933
  21            0.864572       0.148922      -0.215856
  22            0.227573      -0.076233       1.016672
  23           -0.353550      -0.036745       0.277564
  24           -0.305171      -0.001340      -0.262906
  25            0.406041       0.147648      -0.018334
  26            0.053208      -0.049082       0.578160
  27            0.094321       0.018428       0.084912



                              Total Molecular Energy
                              ----------------------

             electronic     vibrational           total    energy 

            -229.698538        0.096985     -229.601553    Hartrees
           -50413001.59        21285.80    -50391715.78    cm-1
             -603073.42          254.63      -602818.78    kJ/mol
             -144138.01           60.86      -144077.15    kcal/mol


                          Molecular Partition Functions
                          -----------------------------

 Qtran is evaluated per mol at 1 atm. pressure.
 Qrot does not include symmetry numbers.
 Qvib does not include zero point energies
 (i.e., energy scale has vibrational ground state as zero).


 Temp.(K)  Translational     Rotational    Vibrational      Total

    50.00     2.6535D+05        5441.31         1.0101   1.458417D+09
   100.00     1.5011D+06       15382.95         1.1447   2.643289D+10
   200.00     8.4913D+06       43499.09         1.9180   7.084395D+11
   273.15     1.8510D+07       69423.90         3.0645   3.937962D+12
   298.15     2.3040D+07       79168.60         3.6349   6.630274D+12
   300.00     2.3399D+07       79906.52         3.6818   6.884082D+12
   400.00     4.8034D+07      123019.20         7.6365   4.512532D+13
   500.00     8.3912D+07      171920.42        16.8487   2.430631D+14
   600.00     1.3237D+08      225991.64        38.8959   1.163521D+15
   700.00     1.9460D+08      284778.75        92.4223   5.121884D+15
   800.00     2.7172D+08      347929.92       222.9955   2.108207D+16
   900.00     3.6476D+08      415162.05       540.8028   8.189610D+16
  1000.00     4.7468D+08      486240.99      1308.6558   3.020490D+17
  1500.00     1.3081D+09      893267.40     91893.6778   1.073731D+20
  2000.00     2.6852D+09     1375264.10   4325253.9707   1.597251D+22


                                +------------------+
                                ! Polarizabilities !
                                +------------------+


 Vibrational polarizabilities calculated acc. to Rinaldi et al.,
 Chem.Phys.Lett. 128 (1986) 177-181.


                        Vibrational Polarizabilities (au)
                        ---------------------------------

                         Ex          Ey          Ez

            Ex     -22.228391   -4.509059  -28.091891
            Ey      -4.509059    0.683985   -7.168382
            Ez     -28.091891   -7.168382   -8.213288



                   Vibrational Polarizabilities (angstroms**3)
                   -------------------------------------------

                         Ex          Ey          Ez

            Ex      -3.293908   -0.668174   -4.162789
            Ey      -0.668174    0.101356   -1.062245
            Ez      -4.162789   -1.062245   -1.217084



                   Vibrational Polarizabilities (angstroms**3)
                   -------------------------------------------

               (Along principal axes of moments of inertia)

                         EA          EB          EC

            EA      -1.804580   -0.097944   -4.409680
            EB      -0.097944    0.212110    0.022182
            EC      -4.409680    0.022182   -2.817165



 Vibrational mean polarization :   -3.7122 cm**3 mol**-1


 CPU time statistics for ABACUS
 ------------------------------

 TWOTEX     00:00:02      52 %
 REST       00:00:01      48 %

 TOTAL      00:00:03     100 %


  Total CPU  time used in ABACUS:   3.04 seconds
  Total wall time used in ABACUS:   3.06 seconds


                   .-------------------------------------------.
                   | End of Static Property Section (ABACUS) - |
                   `-------------------------------------------'

  Total CPU  time used in DALTON:   3.36 seconds
  Total wall time used in DALTON:   3.73 seconds

 
     Date and time (Linux)  : Tue Mar 26 12:42:21 2024
     Host name              : node103                                 
