

     ************************************************************************
     *************** Dalton - An Electronic Structure Program ***************
     ************************************************************************

    This is output from DALTON release Dalton2022.0-dev (2022)
         ( Web site: http://daltonprogram.org )

   ----------------------------------------------------------------------------

    NOTE:
     
    Dalton is an experimental code for the evaluation of molecular
    properties using (MC)SCF, DFT, CI, and CC wave functions.
    The authors accept no responsibility for the performance of
    the code or for the correctness of the results.
     
    The code (in whole or part) is provided under a licence and
    is not to be reproduced for further distribution without
    the written permission of the authors or their representatives.
     
    See the home page "http://daltonprogram.org" for further information.
     
    If results obtained with this code are published,
    the appropriate citations would be both of:
     
       K. Aidas, C. Angeli, K. L. Bak, V. Bakken,
       R. Bast, L. Boman, O. Christiansen, R. Cimiraglia,
       S. Coriani, P. Dahle, E. K. Dalskov, U. Ekstroem,
       T. Enevoldsen, J. J. Eriksen, P. Ettenhuber, B. Fernandez,
       L. Ferrighi, H. Fliegl, L. Frediani, K. Hald, A. Halkier,
       C. Haettig, H. Heiberg, T. Helgaker, A. C. Hennum,
       H. Hettema, E. Hjertenaes, S. Hoest, I.-M. Hoeyvik,
       M. F. Iozzi, B. Jansik, H. J. Aa. Jensen, D. Jonsson,
       P. Joergensen, J. Kauczor, S. Kirpekar,
       T. Kjaergaard, W. Klopper, S. Knecht, R. Kobayashi, H. Koch,
       J. Kongsted, A. Krapp, K. Kristensen, A. Ligabue,
       O. B. Lutnaes, J. I. Melo, K. V. Mikkelsen, R. H. Myhre,
       C. Neiss, C. B. Nielsen, P. Norman, J. Olsen,
       J. M. H. Olsen, A. Osted, M. J. Packer, F. Pawlowski,
       T. B. Pedersen, P. F. Provasi, S. Reine, Z. Rinkevicius,
       T. A. Ruden, K. Ruud, V. Rybkin, P. Salek, C. C. M. Samson,
       A. Sanchez de Meras, T. Saue, S. P. A. Sauer,
       B. Schimmelpfennig, K. Sneskov, A. H. Steindal,
       K. O. Sylvester-Hvid, P. R. Taylor, A. M. Teale,
       E. I. Tellgren, D. P. Tew, A. J. Thorvaldsen, L. Thoegersen,
       O. Vahtras, M. A. Watson, D. J. D. Wilson, M. Ziolkowski
       and H. Agren,
       "The Dalton quantum chemistry program system",
       WIREs Comput. Mol. Sci. 2014, 4:269-284 (doi: 10.1002/wcms.1172)
     
    and
     
       Dalton, a molecular electronic structure program,
       Release Dalton2022.0-dev (2022), see http://daltonprogram.org
   ----------------------------------------------------------------------------

    Authors in alphabetical order (Major contribution(s) in parenthesis):

  Kestutis Aidas,              Vilnius University,        Lithuania   (QM/MM)
  Celestino Angeli,            University of Ferrara,     Italy       (NEVPT2)
  Juan J. Aucar,               Northeast National UniversiArgentina   (LRESC, Relativistic Effects on EFG)
  Keld L. Bak,                 UNI-C,                     Denmark     (AOSOPPA, non-adiabatic coupling, magnetic properties)
  Vebjoern Bakken,             University of Oslo,        Norway      (DALTON; geometry optimizer, symmetry detection)
  Radovan Bast,                UiT The Arctic U. of NorwayNorway      (DALTON installation and execution frameworks)
  Pablo Baudin,                University of Valencia,    Spain       (Cholesky excitation energies)
  Linus Boman,                 NTNU,                      Norway      (Cholesky decomposition and subsystems)
  Bruno N. Cabral Tenorio,     Technical Univ. of Denmark,Denmark     (Lanczos-based CC methods)
  Ove Christiansen,            Aarhus University,         Denmark     (CC module)
  Renzo Cimiraglia,            University of Ferrara,     Italy       (NEVPT2)
  Sonia Coriani,               Technical Univ. of Denmark,Denmark     (CC and RESPONS modules)
  Janusz Cukras,               University of Warsaw,      Poland      (MChD in RESPONS)
  Paal Dahle,                  University of Oslo,        Norway      (Parallelization)
  Erik K. Dalskov,             UNI-C,                     Denmark     (SOPPA)
  Thomas Enevoldsen,           Univ. of Southern Denmark, Denmark     (SOPPA)
  Janus J. Eriksen,            Aarhus University,         Denmark     (Polarizable embedding, TDA)
  Rasmus Faber,                Technical Univ. of Denmark,Denmark     (Vib.avg. NMR w. SOPPA, parallel AO-SOPPA, CVS-CC and EOMCC)
  Tobias Fahleson,             KTH Stockholm,             Sweden      (Damped cubic response)
  Berta Fernandez,             U. of Santiago de CompostelSpain       (Doublet spin, ESR in RESPONS)
  Lara Ferrighi,               Aarhus University,         Denmark     (PCM Cubic response)
  Heike Fliegl,                University of Oslo,        Norway      (CCSD(R12))
  Luca Frediani,               UiT The Arctic U. of NorwayNorway      (PCM)
  Emmanuel Fromager,           Univ. Strasbourg,          France      (MC-srDFT)
  Bin Gao,                     UiT The Arctic U. of NorwayNorway      (Gen1Int library)
  Andre S. P. Gomes,           CNRS/Universite de Lille,  France      (Frozen density embedding)
  Christof Haettig,            Ruhr-University Bochum,    Germany     (CC module)
  Kasper Hald,                 Aarhus University,         Denmark     (CC module)
  Asger Halkier,               Aarhus University,         Denmark     (CC module)
  Frederik Beyer Hansen,       University of Copenhagen,  Denmark     (Parallel AO-SOPPA)
  Erik D. Hedegaard,           Univ. of Southern Denmark, Denmark     (Polarizable embedding, QM/MM, and MC-srDFT)
  Hanne Heiberg,               University of Oslo,        Norway      (Geometry analysis, selected one-electron integrals)
  Trygve Helgaker,             University of Oslo,        Norway      (DALTON; ABACUS, ERI, DFT modules, London, and much more)
  Alf Christian Hennum,        University of Oslo,        Norway      (Parity violation)
  Hinne Hettema,               University of Auckland,    New Zealand (Quadratic response in RESPONS; SIRIUS supersymmetry)
  Andreas E. Hillers-Bendtsen, University of Copenhagen,  Denmark     (MP3)
  Eirik Hjertenaes,            NTNU,                      Norway      (Cholesky decomposition)
  Nicolai Machholdt Hoeyer,    Aarhus University,         Denmark     (MP3)
  Pi A. B. Haase,              University of Copenhagen,  Denmark     (Triplet AO-SOPPA)
  Maria Francesca Iozzi,       University of Oslo,        Norway      (RPA)
  Christoph Jacob,             TU Braunschweig            Germany     (Frozen density embedding)
  Brano Jansik,                Technical Univ. of Ostrava Czech Rep.  (DFT cubic response)
  Hans Joergen Aa. Jensen,     Univ. of Southern Denmark, Denmark     (DALTON; SIRIUS, RESPONS, ABACUS, MC-srDFT, and much more)
  Dan Jonsson,                 UiT The Arctic U. of NorwayNorway      (Cubic response in RESPONS module)
  Poul Joergensen,             Aarhus University,         Denmark     (RESPONS, ABACUS, and CC modules)
  Maciej Kaminski,             University of Warsaw,      Poland      (CPPh in RESPONS)
  Joanna Kauczor,              Linkoeping University,     Sweden      (Complex polarization propagator (CPP) module)
  Sheela Kirpekar,             Univ. of Southern Denmark, Denmark     (Mass-velocity & Darwin integrals)
  Frederik Oersted Kjeldal,    Technical Univ. of Denmark,Denmark     (MP3)
  Erik Kjellgren,              Univ. of Southern Denmark, Denmark     (MC-srDFT)
  Wim Klopper,                 KIT Karlsruhe,             Germany     (R12 code in CC, SIRIUS, and ABACUS modules)
  Stefan Knecht,               ETH Zurich,                Switzerland (Parallel CI and MCSCF, MC-srDFT)
  Rika Kobayashi,              Australian National Univ., Australia   (DIIS in CC, London in MCSCF)
  Henrik Koch,                 NTNU,                      Norway      (CC module, Cholesky decomposition)
  Jacob Kongsted,              Univ. of Southern Denmark, Denmark     (Polarizable embedding, polarizable density embedding, QM/MM)
  Andrea Ligabue,              University of Modena,      Italy       (CTOCD, AOSOPPA)
  Nanna H. List,               Univ. of Southern Denmark, Denmark     (Polarizable embedding)
  Ola B. Lutnaes,              University of Oslo,        Norway      (DFT Hessian)
  Juan I. Melo,                University of Buenos Aires,Argentina   (LRESC, Relativistic Effects on NMR Shieldings)
  Kurt V. Mikkelsen,           University of Copenhagen,  Denmark     (MC-SCRF, QM/MM, and MP3)
  Rolf H. Myhre,               NTNU,                      Norway      (Subsystems and CC3)
  Christian Neiss,             Univ. Erlangen-Nuernberg,  Germany     (CCSD(R12))
  Christian B. Nielsen,        University of Copenhagen,  Denmark     (QM/MM)
  Patrick Norman,              KTH Stockholm,             Sweden      (Cubic response and complex frequency response in RESPONS)
  Jeppe Olsen,                 Aarhus University,         Denmark     (SIRIUS CI/density modules)
  Jogvan Magnus H. Olsen,      Aarhus University,         Denmark     (Polarizable embedding and polarizable density embedding)
  Anders Osted,                Copenhagen University,     Denmark     (QM/MM)
  Martin J. Packer,            University of Sheffield,   UK          (SOPPA)
  Filip Pawlowski,             Kazimierz Wielki UniversityPoland      (CC3)
  Morten N. Pedersen,          Univ. of Southern Denmark, Denmark     (Polarizable embedding)
  Thomas B. Pedersen,          University of Oslo,        Norway      (Cholesky decomposition)
  Patricio F. Provasi,         University of Northeastern,Argentina   (Analysis of coupling constants in localized orbitals)
  Peter Reinholdt,             Univ. of Southern Denmark, Denmark     (Polarizable embedding and polarizable density embedding)
  Zilvinas Rinkevicius,        KTH Stockholm,             Sweden      (open-shell DFT, ESR)
  Elias Rudberg,               KTH Stockholm,             Sweden      (DFT grid and basis info)
  Torgeir A. Ruden,            University of Oslo,        Norway      (Numerical derivatives in ABACUS)
  Kenneth Ruud,                UiT The Arctic U. of NorwayNorway      (DALTON; ABACUS magnetic properties and much more)
  Pawel Salek,                 KTH Stockholm,             Sweden      (DALTON; DFT code)
  Claire C. M. Samson,         University of Karlsruhe    Germany     (Boys localization, r12 integrals in ERI)
  Alfredo Sanchez de Meras,    University of Valencia,    Spain       (CC module, Cholesky decomposition)
  Trond Saue,                  Paul Sabatier University,  France      (direct Fock matrix construction)
  Stephan P. A. Sauer,         University of Copenhagen,  Denmark     (SOPPA(CCSD), SOPPA prop., AOSOPPA, vibrational g-factors)
  Bernd Schimmelpfennig,       Forschungszentrum KarlsruheGermany     (AMFI module)
  Anna K. Schnack-Petersen,    University of Copenhagen,  Denmark     (RPA(D) and HRPA(D) properties in AOSOPPA)
  Kristian Sneskov,            Aarhus University,         Denmark     (Polarizable embedding, QM/MM)
  Arnfinn H. Steindal,         UiT The Arctic U. of NorwayNorway      (parallel QM/MM, polarizable embedding)
  Casper Steinmann,            Aalborg University,        Denmark     (QFIT, polarizable embedding)
  K. O. Sylvester-Hvid,        University of Copenhagen,  Denmark     (MC-SCRF)
  Peter R. Taylor,             VLSCI/Univ. of Melbourne,  Australia   (Symmetry handling ABACUS, integral transformation)
  Andrew M. Teale,             University of Nottingham,  England     (DFT-AC, DFT-D)
  David P. Tew,                University of Bristol,     England     (CCSD(R12))
  Julien Toulouse,             Sorbonne Univ.,            France      (MC-srDFT)
  Olav Vahtras,                KTH Stockholm,             Sweden      (Triplet response, spin-orbit, ESR, TDDFT, open-shell DFT)
  Lucas Visscher,              Vrije Universiteit AmsterdaNetherlands (Frozen density embedding)
  David J. Wilson,             La Trobe University,       Australia   (DFT Hessian and DFT magnetizabilities)
  Luna Zamok,                  University of Copenhagen,  Denmark     (Block Lanczos RPA solver in SOPPA module)
  Hans Agren,                  KTH Stockholm,             Sweden      (SIRIUS module, RESPONS, MC-SCRF solvation)
 --------------------------------------------------------------------------------

     Date and time (Linux)  : Tue Mar 26 11:33:23 2024
     Host name              : node103                                 

 * Work memory size             :    64000000 =  488.28 megabytes.

 * Directories for basis set searches:
   1) /home1/s4925076/Sample_inputs_dalton2024_updated/ex3/enol_vib
   2) /home3/hb-qchav/Dalton/basis


Compilation information
-----------------------

 Who compiled             | p256146
 Host                     | login1
 System                   | Linux-4.18.0-425.13.1.el8_7.x86_64
 CMake generator          | Unix Makefiles
 Processor                | x86_64
 64-bit integers          | OFF
 MPI                      | ON
 Fortran compiler         | /cvmfs/hpc.rug.nl/versions/2023.01/rocky8/x86_64/a
                          | md/zen3/software/impi/2021.7.1-intel-compilers-202
                          | 2.2.1/mpi/2021.7.1/bin/mpiifort
 Fortran compiler version | unknown
 C compiler               | /cvmfs/hpc.rug.nl/versions/2023.01/rocky8/x86_64/a
                          | md/zen3/software/impi/2021.7.1-intel-compilers-202
                          | 2.2.1/mpi/2021.7.1/bin/mpiicc
 C compiler version       | unknown
 C++ compiler             | /cvmfs/hpc.rug.nl/versions/2023.01/rocky8/x86_64/a
                          | md/zen3/software/impi/2021.7.1-intel-compilers-202
                          | 2.2.1/mpi/2021.7.1/bin/mpiicpc
 C++ compiler version     | unknown
 BLAS                     | /cvmfs/hpc.rug.nl/versions/2023.01/rocky8/x86_64/a
                          | md/zen3/software/imkl/2022.2.1/mkl/2022.2.1/lib/in
                          | tel64/libmkl_intel_lp64.so;/cvmfs/hpc.rug.nl/versi
                          | ons/2023.01/rocky8/x86_64/amd/zen3/software/imkl/2
                          | 022.2.1/mkl/2022.2.1/lib/intel64/libmkl_sequential
                          | .so;/cvmfs/hpc.rug.nl/versions/2023.01/rocky8/x86_
                          | 64/amd/zen3/software/imkl/2022.2.1/mkl/2022.2.1/li
                          | b/intel64/libmkl_core.so;/usr/lib64/libpthread.so;
                          | /usr/lib64/libm.so
 LAPACK                   | /cvmfs/hpc.rug.nl/versions/2023.01/rocky8/x86_64/a
                          | md/zen3/software/imkl/2022.2.1/mkl/2022.2.1/lib/in
                          | tel64/libmkl_lapack95_lp64.a;/cvmfs/hpc.rug.nl/ver
                          | sions/2023.01/rocky8/x86_64/amd/zen3/software/imkl
                          | /2022.2.1/mkl/2022.2.1/lib/intel64/libmkl_intel_lp
                          | 64.so
 Static linking           | OFF
 Last Git revision        | 4d6ac05be54d7f9c5fe49e0ac32a42491a6c6955
 Git branch               | master
 Configuration time       | 2023-04-05 13:35:07.780405

 * Sequential calculation.


   Content of the .dal input file
 ----------------------------------

**DALTON INPUT
.RUN PROPERTIES
**WAVE FUNCTION
.HF
**PROPERTIES
.VIBANA
**END OF DALTON INPUT


   Content of the .mol file
 ----------------------------

BASIS
6-31G
opt

Atomtypes=3 Nosymmetry
Charge=6.0 Atoms=4
C        -15.5205783621            4.4066444231            0.3168473811
C        -13.0947682960            4.9861395123            0.0973368950
C        -11.9135763465            7.4877208720           -0.0444121200
C        -13.0373249554            9.7346736901            0.0187239024
Charge=1.0 Atoms=6
H        -19.0572765370            5.5435541124            0.6090462751
H        -16.1430055647            2.4790129571            0.4012609367
H        -11.8208911268            3.4078007490            0.0122129098
H         -9.8873543435            7.4350399139           -0.2198791303
H        -15.0406326615            9.9397344342            0.1894119086
H        -11.9352956789           11.4342255465           -0.1032814187
Charge=8.0 Atoms=1
O        -17.3993318580            6.2040232270            0.4504145701


       *******************************************************************
       *********** Output from DALTON general input processing ***********
       *******************************************************************

 --------------------------------------------------------------------------------
   Overall default print level:    0
   Print level for DALTON.STAT:    1

    HERMIT 1- and 2-electron integral sections will be executed
    "Old" integral transformation used (limited to max 255 basis functions)
    Wave function sections will be executed (SIRIUS module)
    Static molecular property section will be executed (ABACUS module)
 --------------------------------------------------------------------------------


   ****************************************************************************
   *************** Output of molecule and basis set information ***************
   ****************************************************************************


    The two title cards from your ".mol" input:
    --------------------------------------------------------------------------------
 1: opt
 2: 
    --------------------------------------------------------------------------------

  Atomic type no.    1
  --------------------
  Nuclear charge:   6.00000
  Number of symmetry independent centers:    4
  Number of basis sets to read;    2
  Basis set file used for this atomic type with Z =   6 :
     "/home3/hb-qchav/Dalton/basis/6-31G"

  Info about the basis set file: your basis has no documentation.
  Basis set: 6-31G                                                                           

  Atomic type no.    2
  --------------------
  Nuclear charge:   1.00000
  Number of symmetry independent centers:    6
  Number of basis sets to read;    2
  Basis set file used for this atomic type with Z =   1 :
     "/home3/hb-qchav/Dalton/basis/6-31G"

  Info about the basis set file: your basis has no documentation.
  Basis set: 6-31G                                                                           

  Atomic type no.    3
  --------------------
  Nuclear charge:   8.00000
  Number of symmetry independent centers:    1
  Number of basis sets to read;    2
  Basis set file used for this atomic type with Z =   8 :
     "/home3/hb-qchav/Dalton/basis/6-31G"

  Info about the basis set file: your basis has no documentation.
  Basis set: 6-31G                                                                           


                         SYMGRP: Point group information
                         -------------------------------

@    Point group: C1 


                                 Isotopic Masses
                                 ---------------

                           C          12.000000
                           C          12.000000
                           C          12.000000
                           C          12.000000
                           H           1.007825
                           H           1.007825
                           H           1.007825
                           H           1.007825
                           H           1.007825
                           H           1.007825
                           O          15.994915

                       Total mass:    70.041865 amu
                       Natural abundance:  95.357 %

 Center-of-mass coordinates (a.u.):  -14.357651    6.555639    0.182206
 Center-of-mass coordinates (Angs):   -7.597742    3.469095    0.096419


  Atoms and basis sets
  --------------------

  Number of atom types :    3
  Total number of atoms:   11

  Basis set used is "6-31G" from the basis set library.

  label    atoms   charge   prim   cont     basis
  ----------------------------------------------------------------------
  C           4    6.0000    22     9      [10s4p|3s2p]                                       
  H           6    1.0000     4     2      [4s|2s]                                            
  O           1    8.0000    22     9      [10s4p|3s2p]                                       
  ----------------------------------------------------------------------
  total:     11   38.0000   134    57
  ----------------------------------------------------------------------

  Threshold for neglecting AO integrals:  1.00D-12


  Cartesian Coordinates (a.u.)
  ----------------------------

  Total number of coordinates:   33
  C       :     1  x -15.5205783621    2  y   4.4066444231    3  z   0.3168473811
  C       :     4  x -13.0947682960    5  y   4.9861395123    6  z   0.0973368950
  C       :     7  x -11.9135763465    8  y   7.4877208720    9  z  -0.0444121200
  C       :    10  x -13.0373249554   11  y   9.7346736901   12  z   0.0187239024
  H       :    13  x -19.0572765370   14  y   5.5435541124   15  z   0.6090462751
  H       :    16  x -16.1430055647   17  y   2.4790129571   18  z   0.4012609367
  H       :    19  x -11.8208911268   20  y   3.4078007490   21  z   0.0122129098
  H       :    22  x  -9.8873543435   23  y   7.4350399139   24  z  -0.2198791303
  H       :    25  x -15.0406326615   26  y   9.9397344342   27  z   0.1894119086
  H       :    28  x -11.9352956789   29  y  11.4342255465   30  z  -0.1032814187
  O       :    31  x -17.3993318580   32  y   6.2040232270   33  z   0.4504145701


   Interatomic separations (in Angstrom):
   --------------------------------------

            C           C           C           C           H           H     
            ------      ------      ------      ------      ------      ------
 C     :    0.000000
 C     :    1.324905    0.000000
 C     :    2.517572    1.465851    0.000000
 C     :    3.114662    2.513344    1.329867    0.000000
 H     :    1.971935    3.180529    3.933010    3.894176    0.000000
 H     :    1.072848    2.094753    3.477055    4.181377    2.240587    0.000000
 H     :    2.034284    1.074264    2.159766    3.409358    4.005103    2.348419
 H     :    3.396331    2.142040    1.076604    2.067693    4.974049    4.236102
 H     :    2.939753    2.816743    2.106466    1.069465    3.158967    3.992482
 H     :    4.180756    3.468531    2.088664    1.073830    4.905391    5.242734
 O     :    1.377704    2.374654    2.992835    2.978424    0.948123    2.080445

            H           H           H           H           O     
            ------      ------      ------      ------      ------
 H     :    0.000000
 H     :    2.367208    0.000000
 H     :    3.854804    3.039767    0.000000
 H     :    4.248272    2.378423    1.830241    0.000000
 O     :    3.310209    4.043776    2.341998    4.013288    0.000000


  Max    interatomic separation is    5.2427 Angstrom (    9.9073 Bohr)
  between atoms   10 and    6, "H     " and "H     ".

  Min HX interatomic separation is    0.9481 Angstrom (    1.7917 Bohr)

  Min YX interatomic separation is    1.3249 Angstrom (    2.5037 Bohr)


  Bond distances (Angstrom):
  --------------------------

                  atom 1     atom 2       distance
                  ------     ------       --------
  bond distance:  C          C            1.324905
  bond distance:  C          C            1.465851
  bond distance:  C          C            1.329867
  bond distance:  H          C            1.072848
  bond distance:  H          C            1.074264
  bond distance:  H          C            1.076604
  bond distance:  H          C            1.069465
  bond distance:  H          C            1.073830
  bond distance:  O          C            1.377704
  bond distance:  O          H            0.948123


  Bond angles (degrees):
  ----------------------

                  atom 1     atom 2     atom 3         angle
                  ------     ------     ------         -----
  bond angle:     C          C          H            121.411
  bond angle:     C          C          O            122.949
  bond angle:     H          C          O            115.640
  bond angle:     C          C          C            128.804
  bond angle:     C          C          H            115.576
  bond angle:     C          C          H            115.620
  bond angle:     C          C          C            127.987
  bond angle:     C          C          H            113.936
  bond angle:     C          C          H            118.077
  bond angle:     C          C          H            122.418
  bond angle:     C          C          H            120.297
  bond angle:     H          C          H            117.285
  bond angle:     C          O          H            114.697




 Principal moments of inertia (u*A**2) and principal axes
 --------------------------------------------------------

   IA      52.501903          0.777981    0.623538   -0.077104
   IB     121.132874         -0.622336    0.781638    0.041706
   IC     173.634758          0.086273    0.015538    0.996150


 Rotational constants
 --------------------

@    The molecule is planar.

               A                   B                   C

           9625.9179           4172.1045           2910.5866 MHz
            0.321086            0.139166            0.097087 cm-1


@  Nuclear repulsion energy :  160.337901990312 Hartree


                     .---------------------------------------.
                     | Starting in Integral Section (HERMIT) |
                     `---------------------------------------'



 ***************************************************************************************
 ****************** Output from **INTEGRALS input processing (HERMIT) ******************
 ***************************************************************************************


 - Using defaults, no **INTEGRALS input found

 Default print level:        1

 Calculation of one- and two-electron Hamiltonian integrals.

 Center of mass  (bohr):    -14.357651119447      6.555639358109      0.182205622074
 Operator center (bohr):      0.000000000000      0.000000000000      0.000000000000
 Gauge origin    (bohr):      0.000000000000      0.000000000000      0.000000000000
 Dipole origin   (bohr):      0.000000000000      0.000000000000      0.000000000000

Calculation of 2-electron integrals are postponed until they are needed.


     ************************************************************************
     ************************** Output from HERINT **************************
     ************************************************************************



                      Nuclear contribution to dipole moments
                      --------------------------------------

                 au               Debye          C m (/(10**-30)

      x   -544.47659854     -1383.92138396     -4616.26484268
      y    249.56262451       634.32487940      2115.88004459
      z      6.82306439        17.34249873        57.84834897


  Total CPU  time used in HERMIT:   0.03 seconds
  Total wall time used in HERMIT:   0.03 seconds


                        .----------------------------------.
                        | End of Integral Section (HERMIT) |
                        `----------------------------------'



                   .--------------------------------------------.
                   | Starting in Wave Function Section (SIRIUS) |
                   `--------------------------------------------'


 *** Output from Huckel module :

     Using EWMO model:          T
     Using EHT  model:          F
     Number of Huckel orbitals each symmetry:   31

 EWMO - Energy Weighted Maximum Overlap - is a Huckel type method,
        which normally is better than Extended Huckel Theory.
 Reference: Linderberg and Ohrn, Propagators in Quantum Chemistry (Wiley, 1973)

 Huckel EWMO eigenvalues for symmetry :  1
          -20.685221     -11.359665     -11.354890     -11.348270     -11.345126
           -1.827177      -1.574994      -1.344040      -1.041790      -0.943069
           -0.805488      -0.751382      -0.693656      -0.590439      -0.581243
           -0.570009      -0.474344      -0.431177      -0.429076      -0.270916
           -0.224816      -0.201989      -0.165109      -0.131771      -0.128333
           -0.121292      -0.111972      -0.097982      -0.093337      -0.087201
           -0.078927

 **********************************************************************
 *SIRIUS* a direct, restricted step, second order MCSCF program       *
 **********************************************************************

 
     Date and time (Linux)  : Tue Mar 26 11:33:24 2024
     Host name              : node103                                 

 Title lines from ".mol" input file:
     opt
     

 Print level on unit LUPRI =   2 is   0
 Print level on unit LUW4  =   2 is   5

@    Restricted, closed shell Hartree-Fock calculation.

@    Time-dependent Hartree-Fock calculation (random phase approximation).

 Initial molecular orbitals are obtained according to
 ".MOSTART EWMO  " input option

     Wave function specification
     ============================
@    Wave function type        --- HF ---
@    Number of closed shell electrons          38
@    Number of electrons in active shells       0
@    Total charge of the molecule               0

@    Spin multiplicity and 2 M_S                1         0
@    Total number of symmetries                 1 (point group: C1 )
@    Reference state symmetry                   1 (irrep name : A  )

     Orbital specifications
     ======================
@    Abelian symmetry species          All |    1
@                                          |  A  
                                       --- |  ---
@    Occupied SCF orbitals              19 |   19
@    Secondary orbitals                 38 |   38
@    Total number of orbitals           57 |   57
@    Number of basis functions          57 |   57

     Optimization information
     ========================
@    Number of configurations                 1
@    Number of orbital rotations            722
     ------------------------------------------
@    Total number of variables              723

     Maximum number of Fock   iterations      0
     Maximum number of DIIS   iterations     60
     Maximum number of QC-SCF iterations     60
     Threshold for SCF convergence     1.00D-05


 ***********************************************
 ***** DIIS acceleration of SCF iterations *****
 ***********************************************

 C1-DIIS algorithm; max error vectors =    8

 Iter      Total energy        Error norm    Delta(E)  DIIS dim.
 -----------------------------------------------------------------------------

Calculating AOSUPINT

---> (Re)generating AOTWOINT


     ************************************************************************
     ************************** Output from HERINT **************************
     ************************************************************************


 Threshold for neglecting two-electron integrals:  1.00D-12
 HERMIT - Number of two-electron integrals written:     1305064 ( 95.5% )
 HERMIT - Megabytes written:                             14.950

  Total CPU  time used in TWOINT:   0.17 seconds
  Total wall time used in TWOINT:   0.17 seconds
  Time used in TWOINT     is       0.17 seconds
  CPU  time used in MAKE_AOTWOINT is   0.17 seconds
  WALL time used in MAKE_AOTWOINT is   0.17 seconds
     (Precalculated AO two-electron integrals are transformed to P-supermatrix elements.
      Threshold for discarding integrals :  1.00D-12 )

@  1    -228.986067427        2.95008D+00   -2.29D+02    1
      Virial theorem: -V/T =      2.010921
@    MULPOP   C       0.55; C       0.23; C       0.32; C       0.08; H       0.26; H      -0.19; H      -0.16; H      -0.19; H      -0.15; H      -0.15; 
@             O      -0.60; 
   1  Level shift: doubly occupied orbital energies shifted by -2.00D-01
 -----------------------------------------------------------------------------
@  2    -229.625996488        8.17579D-01   -6.40D-01    2
      Virial theorem: -V/T =      1.999587
@    MULPOP   C       0.13; C      -0.27; C      -0.17; C      -0.23; H       0.34; H       0.14; H       0.16; H       0.14; H       0.14; H       0.11; 
@             O      -0.50; 
   2  Level shift: doubly occupied orbital energies shifted by -1.00D-01
 -----------------------------------------------------------------------------
@  3    -229.673728693        2.84077D-01   -4.77D-02    3
      Virial theorem: -V/T =      1.998601
@    MULPOP   C       0.19; C      -0.18; C      -0.10; C      -0.34; H       0.41; H       0.17; H       0.15; H       0.14; H       0.17; H       0.13; 
@             O      -0.74; 
   3  Level shift: doubly occupied orbital energies shifted by -5.00D-02
 -----------------------------------------------------------------------------
@  4    -229.679537749        8.90728D-02   -5.81D-03    4
      Virial theorem: -V/T =      1.999894
@    MULPOP   C       0.20; C      -0.24; C      -0.14; C      -0.33; H       0.41; H       0.18; H       0.17; H       0.16; H       0.19; H       0.14; 
@             O      -0.73; 
   4  Level shift: doubly occupied orbital energies shifted by -2.50D-02
 -----------------------------------------------------------------------------
@  5    -229.680279477        2.14590D-02   -7.42D-04    5
      Virial theorem: -V/T =      1.999173
@    MULPOP   C       0.18; C      -0.23; C      -0.15; C      -0.35; H       0.42; H       0.19; H       0.18; H       0.17; H       0.20; H       0.15; 
@             O      -0.75; 
 -----------------------------------------------------------------------------
@  6    -229.680377366        6.01919D-03   -9.79D-05    6
      Virial theorem: -V/T =      1.999202
@    MULPOP   C       0.18; C      -0.23; C      -0.15; C      -0.35; H       0.42; H       0.19; H       0.18; H       0.17; H       0.21; H       0.15; 
@             O      -0.75; 
 -----------------------------------------------------------------------------
@  7    -229.680388204        2.33174D-03   -1.08D-05    7
      Virial theorem: -V/T =      1.999211
@    MULPOP   C       0.18; C      -0.23; C      -0.15; C      -0.35; H       0.42; H       0.19; H       0.18; H       0.17; H       0.21; H       0.15; 
@             O      -0.75; 
 -----------------------------------------------------------------------------
@  8    -229.680389121        6.81124D-04   -9.17D-07    8
      Virial theorem: -V/T =      1.999210
@    MULPOP   C       0.18; C      -0.23; C      -0.15; C      -0.35; H       0.42; H       0.19; H       0.18; H       0.17; H       0.21; H       0.15; 
@             O      -0.75; 
 -----------------------------------------------------------------------------
@  9    -229.680389249        2.38954D-04   -1.28D-07    8
      Virial theorem: -V/T =      1.999210
@    MULPOP   C       0.18; C      -0.23; C      -0.15; C      -0.35; H       0.42; H       0.19; H       0.18; H       0.17; H       0.21; H       0.15; 
@             O      -0.75; 
 -----------------------------------------------------------------------------
@ 10    -229.680389259        4.68783D-05   -1.01D-08    8
      Virial theorem: -V/T =      1.999210
@    MULPOP   C       0.18; C      -0.23; C      -0.15; C      -0.35; H       0.42; H       0.19; H       0.18; H       0.17; H       0.21; H       0.15; 
@             O      -0.75; 
 -----------------------------------------------------------------------------
@ 11    -229.680389259        1.70281D-05   -3.95D-10    8
      Virial theorem: -V/T =      1.999210
@    MULPOP   C       0.18; C      -0.23; C      -0.15; C      -0.35; H       0.42; H       0.19; H       0.18; H       0.17; H       0.21; H       0.15; 
@             O      -0.75; 
 -----------------------------------------------------------------------------
@ 12    -229.680389259        6.46195D-06   -2.64D-11    8

@ *** DIIS converged in  12 iterations !
@     Converged SCF energy, gradient:   -229.680389259403    6.46D-06
    - total time used in SIRFCK :              0.00 seconds


 *** SCF orbital energy analysis ***

 Only the 20 lowest virtual orbital energies printed in each symmetry.

 Number of electrons        :   38
 Closed shell orbitals      :   19

 Sym       Hartree-Fock orbital energies

1 A     -20.58526932   -11.29946671   -11.22621223   -11.22521698   -11.20723146
         -1.40143765    -1.07982400    -0.99359552    -0.83732459    -0.74831822
         -0.73085809    -0.62917385    -0.61101723    -0.57126444    -0.54969900
         -0.52887728    -0.47068276    -0.41476383    -0.29916703     0.13701405
          0.20511178     0.26365068     0.28970089     0.29391155     0.32886511
          0.34911875     0.36334324     0.43806861     0.51564895     0.57471370
          0.58962295     0.70601240     0.75895173     0.79059335     0.83293437
          0.84029930     0.86889981     0.90392115     0.95445913

    E(LUMO) :     0.13701405 au (symmetry 1)
  - E(HOMO) :    -0.29916703 au (symmetry 1)
  ------------------------------------------
    gap     :     0.43618108 au

 --- Writing SIRIFC interface file

--------------------------------------------------------------------------------


     .--------------------------------------------------.
     | HF-SCF KT IPs [a.u. & eV] from Koopmans' theorem |
     `--------------------------------------------------'


     HF-SCF KT symmetry 1 ( A  ) in point group C1  -- 19 principal poles with pole strength 1

   ============  ============  ============  ============  ============
      20.585269     11.299467     11.226212     11.225217     11.207231
     560.153672    307.474130    305.480774    305.453692    304.964281
   ============  ============  ============  ============  ============

   ============  ============  ============  ============  ============
       1.401438      1.079824      0.993596      0.837325      0.748318
      38.135058     29.383506     27.037109     22.784761     20.362775
   ============  ============  ============  ============  ============

   ============  ============  ============  ============  ============
       0.730858      0.629174      0.611017      0.571264      0.549699
      19.887660     17.120691     16.626625     15.544896     14.958071
   ============  ============  ============  ============  ============

   ============  ============  ============  ============
       0.528877      0.470683      0.414764      0.299167
      14.391483     12.807930     11.286298      8.140749
   ============  ============  ============  ============

@ Summary of HF-SCF KT ionization potentials [eV]:

@ Symmetry 1 (A  ) :   560.154     307.474     305.481     305.454     304.964
@                       38.135      29.384      27.037      22.785      20.363
@                       19.888      17.121      16.627      15.545      14.958
@                       14.391      12.808      11.286       8.141

  === End of HF-SCF KT output ===
--------------------------------------------------------------------------------


 CPU and wall time for SCF :       0.269       0.756


                       .-----------------------------------.
                       | --- Final results from SIRIUS --- |
                       `-----------------------------------'


@    Spin multiplicity:           1
@    Spatial symmetry:            1 ( irrep  A   in C1  )
@    Total charge of molecule:    0

@    Final HF energy:            -229.680389259403                 
@    Nuclear repulsion:           160.337901990312
@    Electronic energy:          -390.018291249715

@    Final gradient norm:           0.000006461950

 
     Date and time (Linux)  : Tue Mar 26 11:33:24 2024
     Host name              : node103                                 

File label for MO orbitals:  26Mar24   FOCKDIIS

 (Only coefficients > 0.0100 are printed.)

 Molecular orbitals for symmetry species 1  (A  )
 ------------------------------------------------

    Orbital        10       11       12       13       14       15       16
   1 C   :1s    -0.0011  -0.0471   0.0230   0.0130   0.0001  -0.0089   0.0278
   2 C   :1s     0.0102   0.1031  -0.0499  -0.0256  -0.0002   0.0358  -0.0575
   3 C   :1s    -0.0019   0.0289  -0.0344  -0.0785   0.0002  -0.0985  -0.1364
   4 C   :2px   -0.1446  -0.1996  -0.1719  -0.2303  -0.0195   0.0411  -0.1089
   5 C   :2py    0.2238  -0.2163   0.0293  -0.0773  -0.0048   0.2064   0.0926
   6 C   :2pz    0.0088   0.0207   0.0141   0.0213  -0.2264  -0.0079   0.0081
   7 C   :2px    0.0034  -0.1159  -0.0241  -0.1158  -0.0120  -0.0415  -0.0476
   8 C   :2py    0.0408  -0.1355   0.0156  -0.0729  -0.0023   0.0084   0.0294
   9 C   :2pz   -0.0010   0.0122   0.0017   0.0113  -0.1400   0.0028   0.0038
  10 C   :1s     0.0380   0.0551  -0.0144  -0.0100   0.0001  -0.0330  -0.0175
  11 C   :1s    -0.0722  -0.1183   0.0297   0.0163  -0.0002   0.0662   0.0332
  12 C   :1s    -0.0959  -0.0165   0.0260   0.1149  -0.0006   0.1838   0.0860
  13 C   :2px    0.0132   0.0839   0.2473   0.2090  -0.0098  -0.1142   0.1476
  14 C   :2py    0.1732   0.0037  -0.1240   0.1622  -0.0024   0.1614  -0.2105
  15 C   :2pz   -0.0040  -0.0073  -0.0196  -0.0206  -0.1170   0.0067  -0.0093
  16 C   :2px    0.0125  -0.0546   0.1139   0.0248  -0.0049  -0.0889   0.0516
  17 C   :2py    0.0705   0.0341  -0.0726   0.0725  -0.0013   0.0923  -0.1421
  18 C   :2pz   -0.0022   0.0042  -0.0088  -0.0033  -0.0582   0.0059  -0.0021
  19 C   :1s    -0.0555  -0.0684   0.0361   0.0007  -0.0001   0.0117   0.0103
  20 C   :1s     0.1120   0.1430  -0.0804   0.0030   0.0002  -0.0192  -0.0199
  21 C   :1s     0.1069   0.0986  -0.0572  -0.0155   0.0003  -0.0568  -0.0346
  22 C   :2px    0.0235   0.1437   0.2008  -0.2042  -0.0043  -0.0358  -0.1954
  23 C   :2py   -0.0498   0.0425  -0.1388  -0.1929   0.0000  -0.1185   0.2517
  24 C   :2pz   -0.0013  -0.0132  -0.0153   0.0208  -0.0442   0.0047   0.0132
  25 C   :2px    0.0117   0.1012   0.0466  -0.0606  -0.0024  -0.0004  -0.1160
  26 C   :2py   -0.0081  -0.0162  -0.0434  -0.0635  -0.0002  -0.0370   0.0749
  27 C   :2pz   -0.0009  -0.0085  -0.0034   0.0063  -0.0252   0.0005   0.0090
  28 C   :1s     0.0579   0.0410  -0.0184  -0.0130  -0.0000  -0.0032  -0.0205
  29 C   :1s    -0.1164  -0.0835   0.0343   0.0277   0.0000   0.0049   0.0470
  30 C   :1s    -0.1229  -0.0484   0.0620   0.0599  -0.0001   0.0340   0.0200
  31 C   :2px    0.0261   0.1293  -0.0109  -0.2776  -0.0024   0.1098   0.1842
  32 C   :2py   -0.0934  -0.0726   0.2927  -0.0443  -0.0016   0.1820  -0.2215
  33 C   :2pz   -0.0008  -0.0101  -0.0036   0.0248  -0.0241  -0.0125  -0.0125
  34 C   :2px    0.0035   0.0399   0.0100  -0.1223  -0.0018   0.0568   0.0938
  35 C   :2py   -0.0301  -0.0462   0.1015  -0.0166  -0.0008   0.0800  -0.0691
  36 C   :2pz    0.0002  -0.0028  -0.0024   0.0109  -0.0195  -0.0063  -0.0070
  37 H   :1s    -0.2029   0.0475  -0.0986   0.0151  -0.0006   0.1199  -0.0158
  38 H   :1s    -0.0746   0.0171  -0.0495   0.0054  -0.0003   0.0594  -0.0179
  39 H   :1s    -0.0850   0.1901  -0.0147   0.0764   0.0007  -0.1383  -0.0865
  40 H   :1s    -0.0578   0.0843  -0.0023   0.0429   0.0007  -0.1408  -0.0676
  41 H   :1s    -0.0990  -0.0254   0.1710   0.0180   0.0003  -0.0959   0.2069
  42 H   :1s    -0.0533   0.0166   0.1056   0.0236   0.0002  -0.0742   0.1514
  43 H   :1s     0.0650   0.1381   0.0831  -0.1226  -0.0002  -0.0386  -0.1565
  44 H   :1s     0.0296   0.0567   0.0747  -0.0915  -0.0002  -0.0324  -0.1129
  45 H   :1s    -0.0657  -0.1136   0.0470   0.1632   0.0002  -0.0709  -0.1178
  46 H   :1s    -0.0329  -0.0633   0.0366   0.0841   0.0002  -0.0708  -0.0910
  47 H   :1s    -0.0861  -0.0358   0.1625  -0.0974  -0.0008   0.1476  -0.0343
  48 H   :1s    -0.0436  -0.0111   0.1103  -0.0708  -0.0006   0.1115  -0.0414
  49 O   :1s    -0.0136   0.0368  -0.0145   0.0254  -0.0003   0.0454   0.0012
  50 O   :1s     0.0294  -0.0908   0.0307  -0.0624   0.0007  -0.1113  -0.0084
  51 O   :1s     0.0695  -0.1143   0.0705  -0.0859   0.0010  -0.1691   0.0154
  52 O   :2px    0.3795  -0.0706   0.1852   0.0001  -0.0481  -0.1107   0.0804
  53 O   :2py   -0.0170  -0.2027  -0.0370  -0.1821  -0.0073  -0.3856  -0.1857
  54 O   :2pz   -0.0332   0.0094  -0.0164   0.0031  -0.5486   0.0135  -0.0038
  55 O   :2px    0.2125  -0.0243   0.1130   0.0111  -0.0353  -0.0596   0.0602
  56 O   :2py   -0.0101  -0.1233  -0.0280  -0.1217  -0.0053  -0.2893  -0.1439
  57 O   :2pz   -0.0186   0.0041  -0.0100   0.0011  -0.4017   0.0081  -0.0027

    Orbital        17       18       19       20       21       22       23
   1 C   :1s    -0.0119  -0.0000  -0.0000   0.0000  -0.0181  -0.0397  -0.0004
   2 C   :1s     0.0356   0.0000  -0.0000   0.0000   0.0118   0.0487   0.0002
   3 C   :1s    -0.0600  -0.0000  -0.0000  -0.0003   0.4606   0.5887   0.0076
   4 C   :2px    0.0873   0.0132   0.0259  -0.0277   0.0349  -0.0534   0.0208
   5 C   :2py    0.1633   0.0025   0.0048  -0.0051  -0.1893  -0.0568   0.0033
   6 C   :2pz   -0.0104   0.1500   0.2987  -0.3203  -0.0000   0.0058   0.2469
   7 C   :2px    0.0153   0.0087   0.0208  -0.0457   0.0310  -0.2723   0.0502
   8 C   :2py    0.0344   0.0016   0.0038  -0.0084  -0.4254  -0.1478   0.0063
   9 C   :2pz   -0.0020   0.1011   0.2411  -0.5320   0.0038   0.0266   0.5979
  10 C   :1s     0.0131   0.0000  -0.0000   0.0000  -0.0174  -0.0439   0.0001
  11 C   :1s    -0.0325  -0.0000   0.0000   0.0000   0.0320   0.0279  -0.0002
  12 C   :1s     0.0191   0.0001   0.0002  -0.0003   0.1735   0.9319  -0.0001
  13 C   :2px   -0.1243   0.0241   0.0225   0.0172   0.0259   0.1392  -0.0277
  14 C   :2py   -0.2119   0.0044   0.0041   0.0032  -0.0612  -0.1128  -0.0050
  15 C   :2pz    0.0139   0.2806   0.2605   0.1987  -0.0013  -0.0106  -0.3205
  16 C   :2px   -0.0776   0.0179   0.0219   0.0308   0.1172   0.3847  -0.0690
  17 C   :2py   -0.0843   0.0033   0.0041   0.0058  -0.1965  -0.3882  -0.0106
  18 C   :2pz    0.0079   0.2081   0.2538   0.3539  -0.0070  -0.0279  -0.8106
  19 C   :1s     0.0074   0.0000  -0.0000  -0.0000  -0.0275  -0.0368   0.0002
  20 C   :1s    -0.0172  -0.0000   0.0000   0.0000   0.0392   0.0252  -0.0001
  21 C   :1s    -0.0107  -0.0000  -0.0001   0.0000   0.4186   0.7063  -0.0063
  22 C   :2px    0.2281   0.0272  -0.0192   0.0188   0.0144   0.1731   0.0275
  23 C   :2py    0.1275   0.0048  -0.0034   0.0033  -0.0435   0.0148   0.0051
  24 C   :2pz   -0.0220   0.3108  -0.2209   0.2160  -0.0005  -0.0149   0.3255
  25 C   :2px    0.1660   0.0192  -0.0191   0.0331   0.0584   0.4574   0.0665
  26 C   :2py    0.0689   0.0034  -0.0034   0.0060  -0.0381   0.0912   0.0133
  27 C   :2pz   -0.0156   0.2182  -0.2201   0.3804  -0.0044  -0.0404   0.7952
  28 C   :1s    -0.0050   0.0000   0.0000   0.0000  -0.0154  -0.0184   0.0002
  29 C   :1s     0.0082  -0.0000  -0.0000  -0.0000   0.0316   0.0224  -0.0001
  30 C   :1s     0.0418   0.0000   0.0000  -0.0003   0.1389   0.2123  -0.0037
  31 C   :2px   -0.2506   0.0197  -0.0257  -0.0249  -0.0206   0.0958  -0.0164
  32 C   :2py   -0.1002   0.0036  -0.0045  -0.0044   0.0155   0.0589  -0.0036
  33 C   :2pz    0.0232   0.2292  -0.2957  -0.2871   0.0015  -0.0095  -0.1860
  34 C   :2px   -0.1730   0.0145  -0.0228  -0.0454  -0.0709   0.1991  -0.0496
  35 C   :2py   -0.0596   0.0026  -0.0040  -0.0080   0.1338   0.2399  -0.0111
  36 C   :2pz    0.0159   0.1678  -0.2618  -0.5226   0.0039  -0.0216  -0.5661
  37 H   :1s     0.0593  -0.0001  -0.0002   0.0002  -0.0830   0.0058  -0.0001
  38 H   :1s     0.0333  -0.0001  -0.0002   0.0005  -1.2715   0.7126  -0.0000
  39 H   :1s    -0.1378  -0.0001  -0.0001   0.0001  -0.0015  -0.0292  -0.0001
  40 H   :1s    -0.1426  -0.0002  -0.0001   0.0004  -0.7218  -0.6984  -0.0076
  41 H   :1s     0.0459  -0.0001   0.0000  -0.0000  -0.0505  -0.0113   0.0000
  42 H   :1s     0.0497  -0.0001   0.0000   0.0000  -0.5108  -1.1478   0.0013
  43 H   :1s     0.1675   0.0001   0.0000   0.0000  -0.0160  -0.0357   0.0000
  44 H   :1s     0.1332   0.0001  -0.0000   0.0000  -0.2940  -1.0680   0.0059
  45 H   :1s     0.1716   0.0001   0.0000   0.0000   0.0039   0.0218   0.0000
  46 H   :1s     0.0964   0.0001  -0.0000   0.0001  -0.1212   0.2685   0.0007
  47 H   :1s    -0.1649  -0.0001   0.0000   0.0000  -0.0150  -0.0279   0.0001
  48 H   :1s    -0.1364  -0.0001   0.0000   0.0001  -0.1690  -0.6263   0.0048
  49 O   :1s     0.0231  -0.0000  -0.0000   0.0000  -0.0723   0.0335   0.0001
  50 O   :1s    -0.0596   0.0001   0.0001  -0.0001   0.1027  -0.0333  -0.0002
  51 O   :1s    -0.0765   0.0002   0.0002  -0.0003   0.9413  -0.5645  -0.0010
  52 O   :2px   -0.0311  -0.0211  -0.0177   0.0127  -0.1466   0.1054  -0.0090
  53 O   :2py   -0.2462  -0.0041  -0.0034   0.0024  -0.1041   0.0827  -0.0013
  54 O   :2pz    0.0065  -0.2393  -0.2020   0.1444   0.0150  -0.0108  -0.0986
  55 O   :2px   -0.0133  -0.0187  -0.0186   0.0176  -0.3415   0.2160  -0.0148
  56 O   :2py   -0.2038  -0.0036  -0.0035   0.0032  -0.1949   0.2061  -0.0017
  57 O   :2pz    0.0043  -0.2118  -0.2124   0.1998   0.0341  -0.0228  -0.1650

    Orbital        24       25       26       27       28       29
   1 C   :1s    -0.0795  -0.0682  -0.0288   0.0037   0.0440   0.0330
   2 C   :1s     0.0607   0.0957   0.0514   0.0161  -0.0396  -0.0701
   3 C   :1s     1.6469   1.1435   0.1046  -0.3113  -0.4156  -1.3346
   4 C   :2px   -0.1348  -0.0516  -0.0303   0.0946   0.1057  -0.1656
   5 C   :2py   -0.1678  -0.0316   0.0174  -0.0903  -0.2029  -0.0181
   6 C   :2pz    0.0131   0.0048   0.0024  -0.0067  -0.0059   0.0147
   7 C   :2px   -0.3327   0.0310  -0.1008   0.5070   1.1485  -1.7038
   8 C   :2py   -0.7808  -0.5900  -0.4248  -0.5256  -0.9011  -0.1297
   9 C   :2pz    0.0382   0.0063   0.0155  -0.0351  -0.0846   0.1497
  10 C   :1s     0.0061   0.0605   0.0577   0.0576   0.0281  -0.0349
  11 C   :1s    -0.0451  -0.0578  -0.0816  -0.0855   0.0508   0.0055
  12 C   :1s     0.2593  -1.2903  -0.8209  -0.8720  -1.5404   1.9553
  13 C   :2px    0.0539  -0.0568  -0.0843  -0.0270  -0.0139  -0.0928
  14 C   :2py   -0.0338   0.1203   0.1103  -0.1320  -0.0018  -0.0065
  16 C   :2px    0.3642  -0.3021  -0.8271  -0.4059  -0.0235  -1.1428
  17 C   :2py    0.3368   0.8730   0.7878  -0.1081  -0.4028  -0.7513
  18 C   :2pz   -0.0331   0.0127   0.0590   0.0365   0.0079   0.1107
  19 C   :1s     0.0331   0.0163  -0.0722  -0.0724  -0.0353  -0.0698
  20 C   :1s    -0.0112   0.0078   0.0929   0.0889   0.0461   0.0215
  21 C   :1s    -1.0105  -0.6615   1.1140   1.2115   0.7781   3.2201
  22 C   :2px   -0.1353  -0.0123   0.1165   0.0181  -0.1904  -0.1085
  23 C   :2py    0.0056  -0.0373   0.0144  -0.1241  -0.1016   0.1157
  24 C   :2pz    0.0102   0.0015  -0.0103   0.0005   0.0182   0.0077
  25 C   :2px   -0.4200   0.1050   0.8987   0.6571  -1.4470  -1.1492
  26 C   :2py    0.2950  -0.4838   0.0340  -0.3626  -0.3476   1.7306
  27 C   :2pz    0.0282  -0.0018  -0.0785  -0.0511   0.1314   0.0735
  28 C   :1s     0.0451  -0.0894   0.0826  -0.0077   0.0309   0.0540
  29 C   :1s    -0.0360   0.0730  -0.0968   0.0002  -0.0117  -0.0080
  30 C   :1s    -0.9405   1.9780  -1.1766   0.4096  -0.8437  -2.2988
  31 C   :2px   -0.0379   0.0230   0.1010  -0.2299   0.1481  -0.0804
  32 C   :2py   -0.1346   0.1558  -0.0248  -0.0522   0.0501   0.1172
  33 C   :2pz    0.0062  -0.0043  -0.0084   0.0208  -0.0136   0.0052
  34 C   :2px   -0.1253   0.2396   0.1702  -1.3044   1.0275  -1.1739
  35 C   :2py   -0.4801   0.3650  -0.1389  -0.4712   0.9632   2.2684
  36 C   :2pz    0.0209  -0.0264  -0.0127   0.1203  -0.1042   0.0670
  37 H   :1s     0.0050   0.0126   0.0057   0.0255   0.0028  -0.0675
  38 H   :1s     0.2298   0.1677  -0.1902   0.6065   0.6666  -0.1204
  39 H   :1s    -0.0124   0.0030  -0.0152  -0.0231   0.0025  -0.0357
  40 H   :1s    -1.7881  -1.0936  -0.4947  -0.3192  -0.4055  -0.3331
  41 H   :1s     0.0209  -0.0022   0.0136  -0.0200  -0.0779   0.0966
  42 H   :1s    -0.0798   1.4286   1.6322   0.2923   0.0157  -0.0276
  43 H   :1s    -0.0013  -0.0051  -0.0226   0.0379  -0.0371   0.0832
  44 H   :1s     0.9228   0.1291  -1.5415  -0.9973   1.1304   0.4568
  45 H   :1s    -0.0006  -0.0447   0.0298  -0.0454  -0.0237  -0.0940
  46 H   :1s     0.2354  -0.6789   1.0698  -1.6142   1.2965  -0.6919
  47 H   :1s     0.0217   0.0133  -0.0032   0.0305   0.0130  -0.0631
  48 H   :1s     1.0475  -1.4121   0.5185   1.2058  -0.9972  -0.4913
  49 O   :1s     0.0309   0.0145   0.0126  -0.0215  -0.0407   0.0040
  50 O   :1s    -0.0655  -0.0323  -0.0587   0.0355   0.0463   0.0287
  51 O   :1s    -0.3088  -0.1028   0.1016   0.2999   0.7603  -0.3567
  52 O   :2px   -0.0296  -0.0414  -0.0726   0.1471   0.2306  -0.0113
  53 O   :2py    0.0764   0.1123  -0.0252  -0.0008  -0.1704   0.1253
  54 O   :2pz    0.0017   0.0018   0.0067  -0.0129  -0.0175  -0.0009
  55 O   :2px    0.0129   0.0041  -0.1136   0.4790   0.6694  -0.0570
  56 O   :2py    0.2219   0.1755  -0.0274  -0.1138  -0.4486   0.2698
  57 O   :2pz   -0.0040  -0.0032   0.0104  -0.0402  -0.0513   0.0007

  Total CPU  time used in SIRIUS :   0.29 seconds
  Total wall time used in SIRIUS :   0.81 seconds

 
     Date and time (Linux)  : Tue Mar 26 11:33:24 2024
     Host name              : node103                                 


                     .---------------------------------------.
                     | End of Wave Function Section (SIRIUS) |
                     `---------------------------------------'



        *****************************************************************
        ******** Output from **PROPE input processing for ABACUS ********
        *****************************************************************



 The following molecular properties will be calculated in this run:
 ------------------------------------------------------------------

 Default print level:        0

      The molecular gradient
      The molecular Hessian
      Vibrational analysis
      Dipole moment gradient
      Natural orbital connection is used
      for perturbation dependent basis sets.

 Center of mass dipole origin  :  -14.357651    6.555639    0.182206

 Center of mass gauge origin   :  -14.357651    6.555639    0.182206


                 .------------------------------------------------.
                 | Starting in Static Property Section (ABACUS) - |
                 `------------------------------------------------'


 
     Date and time (Linux)  : Tue Mar 26 11:33:24 2024
     Host name              : node103                                 
  Total CPU  time used in TWOINT:   1.61 seconds
  Total wall time used in TWOINT:   1.61 seconds


   ***************************************************************************
   ************************ FINAL RESULTS from ABACUS ************************
   ***************************************************************************


 
     Date and time (Linux)  : Tue Mar 26 11:33:27 2024
     Host name              : node103                                 


                             Molecular geometry (au)
                             -----------------------

 C        -15.5205783621            4.4066444231            0.3168473811
 C        -13.0947682960            4.9861395123            0.0973368950
 C        -11.9135763465            7.4877208720           -0.0444121200
 C        -13.0373249554            9.7346736901            0.0187239024
 H        -19.0572765370            5.5435541124            0.6090462751
 H        -16.1430055647            2.4790129571            0.4012609367
 H        -11.8208911268            3.4078007490            0.0122129098
 H         -9.8873543435            7.4350399139           -0.2198791303
 H        -15.0406326615            9.9397344342            0.1894119086
 H        -11.9352956789           11.4342255465           -0.1032814187
 O        -17.3993318580            6.2040232270            0.4504145701





                        Molecular wave function and energy
                        ----------------------------------

     Spatial symmetry   1 ( A   )
     Spin multiplicity  1
     2 * M_S            0
     State number       1
     Total charge       0

     Total energy       -229.6803892594 au (Hartrees)
                         -6249.92131763 eV
                           -603025.7690 kJ/mol
                           -144126.6178 kcal/mol


                   Scalar Breit-Pauli relativistic corrections
                   -------------------------------------------

     Darwin correction:                          0.4325008559 au
     Mass-velocity correction:                  -0.5421862272 au

     Total relativistic correction:             -0.1096853713 au ( 0.0478%)
     Non-relativistic + relativistic energy:  -229.7900746307 au



      (Note that these corrections are NOT included in the results below.)


                             Molecular gradient (au)
                             -----------------------

 C         -0.0000316602            0.0000282552            0.0000218681
 C          0.0000155042           -0.0000050650           -0.0000201706
 C         -0.0000061013           -0.0000114484           -0.0000081377
 C          0.0000079639           -0.0000115878            0.0000231220
 H          0.0000054092           -0.0000024198            0.0000102534
 H          0.0000100195           -0.0000107499           -0.0000069538
 H          0.0000010750           -0.0000033521            0.0000135781
 H          0.0000066200            0.0000069378           -0.0000065910
 H         -0.0000109857            0.0000060805           -0.0000097629
 H          0.0000026209            0.0000071616            0.0000013208
 O         -0.0000004655           -0.0000038120           -0.0000185265





                              Molecular Hessian (au)
                              ----------------------

           C    x      C    y      C    z      C    x      C    y      C    z

 C    x    1.001771
 C    y    0.130860    0.730493
 C    z   -0.075330   -0.020502    0.164140

 C    x   -0.591527   -0.131856    0.046711    0.985121
 C    y   -0.127066   -0.169606    0.012490    0.039549    0.713414
 C    z    0.046633    0.012913   -0.081163   -0.072087   -0.012201    0.166789

 C    x   -0.019020   -0.036070    0.003121   -0.159279   -0.072192    0.007856
 C    y   -0.025522   -0.004722    0.002452   -0.047281   -0.254246    0.006821
 C    z    0.002957    0.003370    0.010177    0.007460    0.008964   -0.082598

 C    x   -0.000925   -0.005161    0.000129    0.022044   -0.013269   -0.000806
 C    y    0.010568    0.000073   -0.000922    0.005208   -0.039733    0.000318
 C    z   -0.000119    0.000439   -0.000368   -0.001087    0.001940    0.010471

 H    x   -0.030757   -0.020807    0.002507    0.001787    0.006297   -0.000138
 H    y    0.047245    0.010553   -0.004464    0.002224   -0.006290   -0.000070
 H    z    0.001278    0.001562   -0.006563   -0.000078   -0.000416    0.001288

 H    x   -0.104567   -0.098683    0.006399   -0.006206   -0.036507    0.002079
 H    y   -0.096483   -0.342429    0.013011    0.003419   -0.002886   -0.000076
 H    z    0.006358    0.013174   -0.049578    0.001449    0.003394    0.010982

 H    x   -0.019413    0.034152    0.001456   -0.189685    0.146437    0.010223
 H    y   -0.010222    0.006820    0.000834    0.151571   -0.249930   -0.009853
 H    z    0.002167   -0.003012    0.003553    0.010142   -0.009398   -0.045403

 H    x    0.001325   -0.003201    0.000072   -0.013505    0.004000    0.001599
 H    y   -0.000554   -0.005905    0.000166   -0.037255   -0.001329    0.003347
 H    z    0.000030    0.000394    0.001540    0.002238   -0.000241    0.005431

 H    x    0.000910    0.000444   -0.000023    0.000784    0.000127   -0.000926
 H    y    0.002123   -0.003714   -0.000115   -0.001566    0.001878   -0.000045
 H    z   -0.000051    0.000032    0.000733   -0.000902   -0.000193   -0.009791

 H    x   -0.001261    0.001462    0.000029   -0.000536    0.002550    0.001216
 H    y    0.000990   -0.000354   -0.000090    0.004428   -0.001732   -0.000144
 H    z    0.000038   -0.000130   -0.000666    0.001192    0.000021    0.013812

 O    x   -0.236538    0.128857    0.014926   -0.048993    0.050076    0.004352
 O    y    0.068079   -0.221209   -0.002862    0.011559    0.010463   -0.001010
 O    z    0.016037   -0.008241   -0.041830    0.004963   -0.004359    0.010189


           C    x      C    y      C    z      C    x      C    y      C    z

 C    x    0.767652
 C    y   -0.138525    0.897446
 C    z   -0.049608    0.000829    0.177091

 C    x   -0.247765    0.195542    0.012032    0.796493
 C    y    0.207940   -0.526859   -0.011117   -0.103246    0.924292
 C    z    0.011834   -0.010046   -0.075645   -0.054470   -0.002946    0.155934

 H    x   -0.000255   -0.000602   -0.000005    0.000334    0.000380   -0.000047
 H    y    0.000449   -0.000130   -0.000047    0.000054   -0.000953    0.000005
 H    z   -0.000031    0.000040   -0.000484   -0.000044   -0.000021   -0.000130

 H    x   -0.004195    0.002107    0.001364   -0.000256    0.000107   -0.000025
 H    y   -0.000816    0.002156    0.000226    0.000500   -0.000077   -0.000051
 H    z    0.001409   -0.000031    0.011763   -0.000033   -0.000015   -0.000525

 H    x    0.011518   -0.017686   -0.000333   -0.001527   -0.002200    0.000281
 H    y    0.023348   -0.022310   -0.001600   -0.004915   -0.003530    0.000504
 H    z   -0.000987    0.001948    0.004480    0.000325    0.000270    0.001294

 H    x   -0.361472    0.007564    0.026676   -0.015756   -0.002304    0.002280
 H    y    0.005664   -0.068868   -0.000255    0.039913    0.000429   -0.003320
 H    z    0.026704   -0.000417   -0.055806    0.001632    0.000348    0.009914

 H    x   -0.010193   -0.003835    0.001800   -0.386179    0.036974    0.028449
 H    y    0.039186    0.003538   -0.003308    0.023487   -0.073680   -0.001700
 H    z    0.001144    0.000422    0.009756    0.028640   -0.002865   -0.054332

 H    x    0.012571    0.020345   -0.000631   -0.166647   -0.145836    0.012702
 H    y   -0.023232   -0.024117    0.002531   -0.136092   -0.279417    0.015423
 H    z    0.000039   -0.001258    0.008948    0.012556    0.016272   -0.047725

 O    x    0.010439    0.007884   -0.001710    0.000194   -0.007602    0.000199
 O    y   -0.005756   -0.001883    0.000407    0.003180   -0.000529   -0.000247
 O    z   -0.001482   -0.000761   -0.007677    0.000039    0.000679    0.001101


           H    x      H    y      H    z      H    x      H    y      H    z

 H    x    0.525502
 H    y    0.173041    0.124538
 H    z   -0.049374   -0.017507    0.007234

 H    x    0.003488    0.000786   -0.000259    0.111100
 H    y   -0.000800    0.001087    0.000065    0.094062    0.367381
 H    z   -0.000234   -0.000079    0.000698   -0.008612   -0.013516    0.029769

 H    x   -0.000941    0.001515    0.000254    0.000177   -0.000579   -0.000747
 H    y   -0.000598    0.000338    0.000084   -0.000269    0.001430   -0.000136
 H    z    0.000287   -0.000091    0.002288   -0.000753   -0.000107   -0.008478

 H    x    0.000124   -0.000127   -0.000012   -0.000865   -0.000134    0.000061
 H    y    0.000077    0.000012   -0.000008   -0.001393   -0.000412    0.000124
 H    z   -0.000016    0.000010   -0.000042    0.000081    0.000015   -0.000185

 H    x   -0.000179   -0.000788    0.000098   -0.000001    0.000001    0.000096
 H    y   -0.000244    0.000639    0.000023   -0.000265    0.000263    0.000035
 H    z    0.000091    0.000074    0.000807    0.000099    0.000014    0.001093

 H    x   -0.000009   -0.000462   -0.000012    0.000176   -0.000151   -0.000139
 H    y    0.000150   -0.000014   -0.000016   -0.000240   -0.000025   -0.000001
 H    z   -0.000023    0.000037   -0.000234   -0.000137   -0.000010   -0.001437

 O    x   -0.499091   -0.223931    0.048181    0.001149    0.000978    0.000389
 O    y   -0.156899   -0.129787    0.016196    0.040293   -0.026486   -0.002949
 O    z    0.046951    0.022131   -0.004863   -0.000237    0.000429    0.005882


           H    x      H    y      H    z      H    x      H    y      H    z

 H    x    0.204096
 H    y   -0.156785    0.266344
 H    z   -0.012460    0.009835    0.032279

 H    x    0.001400   -0.000636   -0.000172    0.386060
 H    y    0.000146    0.001140   -0.000042   -0.008779    0.078227
 H    z   -0.000183    0.000026   -0.000679   -0.030558    0.000067    0.035886

 H    x    0.000039   -0.000045   -0.000005    0.000919    0.001983    0.001147
 H    y   -0.000155    0.000324    0.000008    0.002961   -0.005155    0.000045
 H    z   -0.000003   -0.000001   -0.000032    0.001136    0.000130    0.014393

 H    x    0.000199    0.000568   -0.000023    0.001863   -0.000073   -0.001073
 H    y   -0.000605   -0.001342    0.000074    0.000344    0.001278   -0.000211
 H    z   -0.000006   -0.000030    0.000041   -0.001081   -0.000176   -0.010402

 O    x   -0.005864   -0.002014    0.001478   -0.000091    0.000269   -0.000002
 O    y   -0.004243    0.000715    0.000514    0.000313    0.000588   -0.000037
 O    z    0.001517    0.000335    0.010644   -0.000003   -0.000032   -0.000058


           H    x      H    y      H    z      H    x      H    y      H    z

 H    x    0.408262
 H    y   -0.035781    0.069746
 H    z   -0.032163    0.002514    0.034138

 H    x   -0.010177   -0.027727    0.001801    0.164328
 H    y    0.003796    0.005833   -0.000334    0.151215    0.299020
 H    z    0.001312    0.002405    0.005451   -0.014046   -0.017300    0.031048

 O    x   -0.004183   -0.002019    0.000205   -0.000509   -0.000755    0.000158
 O    y   -0.002877    0.000329    0.000207   -0.001887    0.000869    0.000166
 O    z    0.000217    0.000138   -0.002243    0.000175    0.000069    0.001185


           O    x      O    y      O    z

 O    x    0.783502
 O    y    0.048244    0.366933
 O    z   -0.068179   -0.010388    0.027650





                                  Dipole moment
                                  -------------

                 au               Debye          C m (/(10**-30)
              0.948211           2.410111           8.039265


                             Dipole moment components
                             ------------------------

                 au               Debye          C m (/(10**-30)

      x     -0.49829215        -1.26653224        -4.22469681
      y     -0.80462347        -2.04514873        -6.82188186
      z      0.05822025         0.14798111         0.49361185


   Units:   1 a.u. =   2.54175 Debye 
            1 a.u. =   8.47835 (10**-30) C m (SI)




                           Dipole moment gradient (au)
                           ---------------------------

                       Ex             Ey             Ez

        C    x     1.14074567     0.10827958    -0.09539015
        C    y    -0.68507202     0.07694905     0.05917417
        C    z    -0.08249078    -0.00899059     0.06180031

        C    x    -0.38374505    -0.31229312     0.01681696
        C    y    -0.04971716     0.14505505    -0.00195795
        C    z     0.01313652     0.02093888    -0.24788548

        C    x     0.34880171     0.27652963    -0.04560840
        C    y     0.11202403     0.07893634    -0.01284980
        C    z    -0.04316498    -0.02713761    -0.12160838

        C    x     0.00138457     0.02557686    -0.03147128
        C    y    -0.00170849    -0.09695770    -0.00381647
        C    z    -0.03105518    -0.00639928    -0.35359166

        H    x     0.34107916    -0.01583272     0.01197620
        H    y    -0.13972781     0.26144027     0.01607396
        H    z     0.01464466     0.00544270     0.47051280

        H    x    -0.02114964    -0.05834312     0.01695175
        H    y    -0.02450090    -0.11155558     0.00651715
        H    z     0.01611695     0.00918408     0.16261675

        H    x    -0.01151657     0.09328636     0.01210421
        H    y     0.06619792    -0.07947147    -0.00219932
        H    z     0.01246335    -0.00451096     0.14408387

        H    x    -0.17006597    -0.01032368     0.02839558
        H    y     0.01721173     0.03089665     0.00041316
        H    z     0.02793715     0.00280207     0.15202303

        H    x    -0.01224883     0.01287322     0.01833914
        H    y     0.01442937     0.06232822     0.00085541
        H    z     0.01835456     0.00109295     0.19946708

        H    x     0.00465403    -0.10946094     0.01459048
        H    y    -0.09341784    -0.10595945     0.01211683
        H    z     0.01437699     0.01356909     0.15160784

        O    x    -1.23798182    -0.01028123     0.05329598
        O    y     0.78427424    -0.26169197    -0.07432661
        O    z     0.03968042    -0.00599312    -0.61906679





                            +-------------------------+
                            ! APT Population Analysis !
                            +-------------------------+


      [ Reference : J. Cioslowski, J.Am.Chem.Soc. 111 (1989) 8333 ]

                            C         0.426498
                            C        -0.162192
                            C         0.102043
                            C        -0.149722
                            H         0.357677
                            H         0.009971
                            H         0.017699
                            H         0.004285
                            H         0.083182
                            H         0.016767
                            O        -0.706247



   Interatomic separations (in Angstrom):
   --------------------------------------

            C           C           C           C           H           H     
            ------      ------      ------      ------      ------      ------
 C     :    0.000000
 C     :    1.324905    0.000000
 C     :    2.517572    1.465851    0.000000
 C     :    3.114662    2.513344    1.329867    0.000000
 H     :    1.971935    3.180529    3.933010    3.894176    0.000000
 H     :    1.072848    2.094753    3.477055    4.181377    2.240587    0.000000
 H     :    2.034284    1.074264    2.159766    3.409358    4.005103    2.348419
 H     :    3.396331    2.142040    1.076604    2.067693    4.974049    4.236102
 H     :    2.939753    2.816743    2.106466    1.069465    3.158967    3.992482
 H     :    4.180756    3.468531    2.088664    1.073830    4.905391    5.242734
 O     :    1.377704    2.374654    2.992835    2.978424    0.948123    2.080445

            H           H           H           H           O     
            ------      ------      ------      ------      ------
 H     :    0.000000
 H     :    2.367208    0.000000
 H     :    3.854804    3.039767    0.000000
 H     :    4.248272    2.378423    1.830241    0.000000
 O     :    3.310209    4.043776    2.341998    4.013288    0.000000


  Max    interatomic separation is    5.2427 Angstrom (    9.9073 Bohr)
  between atoms   10 and    6, "H     " and "H     ".

  Min HX interatomic separation is    0.9481 Angstrom (    1.7917 Bohr)

  Min YX interatomic separation is    1.3249 Angstrom (    2.5037 Bohr)


  Bond distances (Angstrom):
  --------------------------

                  atom 1     atom 2       distance
                  ------     ------       --------
  bond distance:  C          C            1.324905
  bond distance:  C          C            1.465851
  bond distance:  C          C            1.329867
  bond distance:  H          C            1.072848
  bond distance:  H          C            1.074264
  bond distance:  H          C            1.076604
  bond distance:  H          C            1.069465
  bond distance:  H          C            1.073830
  bond distance:  O          C            1.377704
  bond distance:  O          H            0.948123


  Bond angles (degrees):
  ----------------------

                  atom 1     atom 2     atom 3         angle
                  ------     ------     ------         -----
  bond angle:     C          C          H            121.411
  bond angle:     C          C          O            122.949
  bond angle:     H          C          O            115.640
  bond angle:     C          C          C            128.804
  bond angle:     C          C          H            115.576
  bond angle:     C          C          H            115.620
  bond angle:     C          C          C            127.987
  bond angle:     C          C          H            113.936
  bond angle:     C          C          H            118.077
  bond angle:     C          C          H            122.418
  bond angle:     C          C          H            120.297
  bond angle:     H          C          H            117.285
  bond angle:     C          O          H            114.697




   ****************************************************************************
   *************** ABACUS - ROTATIONAL AND VIBRATIONAL ANALYSIS ***************
   ****************************************************************************


 Norm of (unprojected) molecular gradient (au) :     0.00007298


 Conversion factors used:

    Hartree to (cm)-1      : 219474.62934
    a.m.u.  to a.u.        :   1822.88848
    Bohr    to Angstrom    :  0.529177211
    a.u.    to A**4amu-1   :   142.943572
    a.u.    to km (mol)-1  :      974.864


 Vibrational analysis for parent molecule only.
  Norm of projected gradient     0.000073


                         Isotopic Molecule No. 1
                         ======================= 


                                 Isotopic Masses
                                 ---------------

                           C          12.000000
                           C          12.000000
                           C          12.000000
                           C          12.000000
                           H           1.007825
                           H           1.007825
                           H           1.007825
                           H           1.007825
                           H           1.007825
                           H           1.007825
                           O          15.994915

                       Total mass:    70.041865 amu
                       Natural abundance:  95.357 %

 Center-of-mass coordinates (a.u.):  -14.357651    6.555639    0.182206
 Center-of-mass coordinates (Angs):   -7.597742    3.469095    0.096419


 Principal moments of inertia (u*A**2) and principal axes
 --------------------------------------------------------

   IA      52.501903          0.777981    0.623538   -0.077104
   IB     121.132874         -0.622336    0.781638    0.041706
   IC     173.634758          0.086273    0.015538    0.996150


 Rotational constants
 --------------------

@    The molecule is planar.

               A                   B                   C

           9625.9179           4172.1045           2910.5866 MHz
            0.321086            0.139166            0.097087 cm-1


  Vibrational Frequencies and IR Intensities
  ------------------------------------------

  mode   irrep        frequency             IR intensity
  ============================================================
                  cm-1       hartrees     km/mol   (D/A)**2/amu
  ------------------------------------------------------------
   1      A      4068.86    0.018539    103.612   2.4520
   2      A      3452.18    0.015729      6.514   0.1542
   3      A      3376.00    0.015382     31.449   0.7443
   4      A      3347.53    0.015252     24.004   0.5681
   5      A      3339.81    0.015217     19.370   0.4584
   6      A      3312.03    0.015091     18.302   0.4331
   7      A      1908.37    0.008695     78.254   1.8519
   8      A      1845.69    0.008410      4.005   0.0948
   9      A      1620.72    0.007385      3.764   0.0891
  10      A      1585.72    0.007225      6.398   0.1514
  11      A      1494.14    0.006808      2.725   0.0645
  12      A      1420.59    0.006473     39.796   0.9418
  13      A      1338.10    0.006097    134.713   3.1881
  14      A      1219.38    0.005556     30.915   0.7316
  15      A      1168.76    0.005325      5.162   0.1222
  16      A      1144.85    0.005216     75.546   1.7879
  17      A      1131.59    0.005156     88.729   2.0998
  18      A      1116.13    0.005085      1.013   0.0240
  19      A       967.76    0.004409     10.216   0.2418
  20      A       898.87    0.004096     27.739   0.6565
  21      A       829.12    0.003778     20.998   0.4969
  22      A       763.93    0.003481     18.246   0.4318
  23      A       455.82    0.002077      3.360   0.0795
  24      A       439.11    0.002001      5.309   0.1257
  25      A       245.84    0.001120    236.131   5.5882
  26      A       239.22    0.001090      4.426   0.1047
  27      A        98.95    0.000451      3.869   0.0916



  Normal Coordinates (bohrs*amu**(1/2)):
  --------------------------------------


                1  4069     2  3452     3  3376     4  3348     5  3340 
  ----------------------------------------------------------------------

    C      x   -0.000257    0.000595   -0.029567   -0.011349    0.007338
    C      y   -0.003198    0.001242   -0.066582   -0.032670    0.024054
    C      z    0.000078   -0.000071    0.003619    0.001502   -0.001017

    C      x    0.000846   -0.000622    0.034610   -0.026196    0.031819
    C      y    0.000140    0.001339   -0.031204    0.034782   -0.037500
    C      z   -0.000075    0.000033   -0.002501    0.001714   -0.002158

    C      x   -0.000115   -0.004854    0.010149   -0.037623   -0.010602
    C      y   -0.000155   -0.003094    0.000541    0.006315    0.007002
    C      z    0.000013    0.000470   -0.000891    0.003176    0.000814

    C      x    0.000085   -0.089227   -0.002472    0.004295    0.001202
    C      y    0.000060   -0.018793    0.003316   -0.042982   -0.051335
    C      z   -0.000008    0.008038    0.000164    0.000292    0.000690

    H      x    0.899756    0.000756   -0.006857   -0.003848    0.002433
    H      y    0.340706   -0.001485   -0.008442   -0.003543    0.002392
    H      z   -0.085729   -0.000045    0.000771    0.000409   -0.000255

    H      x    0.006887   -0.003968    0.253082    0.127381   -0.095790
    H      y    0.007159   -0.011440    0.755936    0.391893   -0.295029
    H      z   -0.000719    0.000525   -0.033899   -0.017241    0.012971

    H      x   -0.000182    0.007306   -0.319459    0.322551   -0.366515
    H      y   -0.000590   -0.008431    0.383470   -0.400983    0.445345
    H      z    0.000018   -0.000500    0.021554   -0.021542    0.024641

    H      x    0.000410    0.064713   -0.111090    0.400590    0.092250
    H      y    0.000051   -0.003739   -0.000450   -0.010877   -0.005839
    H      z   -0.000035   -0.005575    0.009669   -0.034677   -0.007935

    H      x   -0.000797    0.835757    0.042299   -0.281110   -0.320405
    H      y    0.000261   -0.091083   -0.002919    0.022817    0.024528
    H      z    0.000063   -0.071140   -0.003626    0.024050    0.027437

    H      x   -0.000160    0.225007   -0.016446    0.266893    0.338783
    H      y    0.000344    0.352712   -0.025441    0.407728    0.513853
    H      z    0.000010   -0.024998    0.001822   -0.029489   -0.037371

    O      x   -0.057500   -0.000570    0.000442    0.000719   -0.000319
    O      y   -0.019557   -0.000420    0.001024    0.000278    0.000171
    O      z    0.005438    0.000056   -0.000058   -0.000069    0.000025


                6  3312     7  1908     8  1846     9  1621    10  1586 
  ----------------------------------------------------------------------

    C      x    0.001222    0.190256    0.017231    0.042034   -0.071658
    C      y    0.003832    0.020898    0.007272   -0.039084    0.042449
    C      z   -0.000166   -0.016847   -0.001612   -0.003028    0.005547

    C      x    0.014330   -0.172421   -0.012116    0.033556   -0.054564
    C      y   -0.014857   -0.068849   -0.040266    0.076382   -0.059849
    C      z   -0.001004    0.016040    0.001683   -0.004112    0.005678

    C      x   -0.071582    0.029749   -0.050457   -0.015864    0.033152
    C      y    0.002732   -0.003716    0.189169   -0.094805   -0.047277
    C      z    0.006185   -0.002528    0.001462    0.002845   -0.002141

    C      x    0.006342   -0.009641    0.065201    0.036357    0.009590
    C      y    0.023020    0.012417   -0.154369   -0.023761   -0.015508
    C      z   -0.000907    0.000645   -0.003290   -0.002788   -0.000592

    H      x    0.000216   -0.077537   -0.010412   -0.028577    0.050232
    H      y   -0.000366    0.147036    0.022703    0.042082   -0.080529
    H      z   -0.000011    0.004134    0.000493    0.001750   -0.002945

    H      x   -0.017890   -0.130741    0.020857   -0.354334    0.487719
    H      y   -0.052992    0.166577    0.006102    0.091905   -0.142242
    H      z    0.002388    0.008671   -0.001902    0.029216   -0.039974

    H      x   -0.159932    0.068934   -0.041950   -0.192958    0.385754
    H      y    0.189844    0.160685   -0.068177   -0.104965    0.304304
    H      z    0.010824   -0.008515    0.004706    0.018428   -0.038283

    H      x    0.847001    0.036925   -0.081349   -0.010692    0.046244
    H      y   -0.023995    0.103999   -0.205173    0.252613    0.213884
    H      z   -0.073313   -0.004812    0.010256   -0.002996   -0.007345

    H      x    0.115913   -0.014139    0.133166    0.073159    0.038187
    H      y   -0.006519    0.000808    0.228980    0.417077    0.325507
    H      z   -0.009961    0.001219   -0.015142   -0.012834   -0.008354

    H      x   -0.188472    0.027231   -0.220891   -0.455953   -0.280471
    H      y   -0.284325   -0.005010    0.007174    0.310748    0.187283
    H      z    0.020768   -0.002293    0.019082    0.034818    0.021456

    O      x   -0.000328   -0.022839   -0.002260   -0.011007    0.016780
    O      y    0.000189   -0.006726   -0.000826   -0.002635    0.009234
    O      z    0.000025    0.002119    0.000216    0.001005   -0.001618


               11  1494    12  1421    13  1338    14  1219    15  1169 
  ----------------------------------------------------------------------

    C      x   -0.002252   -0.069050    0.008405   -0.048243   -0.000983
    C      y   -0.007246    0.045689    0.061723    0.001245   -0.000140
    C      z    0.000325    0.005236   -0.001885    0.004082   -0.011102

    C      x   -0.019146    0.038097    0.057825   -0.009621    0.002414
    C      y   -0.002919   -0.002096   -0.018269    0.008996    0.000406
    C      z    0.001711   -0.003274   -0.004708    0.000723    0.027857

    C      x   -0.081189   -0.014247   -0.046138    0.101604   -0.009262
    C      y    0.019771    0.017447   -0.026290    0.040487   -0.001640
    C      z    0.006755    0.000980    0.004408   -0.009466   -0.106567

    C      x    0.091277    0.024076    0.023523   -0.078566    0.004508
    C      y   -0.035725   -0.034728    0.022641   -0.050271    0.000816
    C      z   -0.007385   -0.001561   -0.002404    0.007598    0.051819

    H      x    0.034552   -0.038270   -0.324482   -0.084750    0.000267
    H      y   -0.073581    0.109312    0.746848    0.239129    0.000034
    H      z   -0.001734    0.001424    0.015282    0.003234    0.002764

    H      x    0.133458   -0.568385    0.269455   -0.013790    0.005217
    H      y   -0.051634    0.209540   -0.022187   -0.013071    0.001017
    H      z   -0.010717    0.045735   -0.022912    0.001489    0.060989

    H      x   -0.124671    0.490674   -0.019960   -0.187596   -0.011543
    H      y   -0.085251    0.370228   -0.082095   -0.141275   -0.002192
    H      z    0.012118   -0.048265    0.003171    0.018483   -0.132669

    H      x   -0.069559   -0.012076   -0.046129    0.111672    0.064821
    H      y    0.743745    0.136311   -0.058430    0.412120    0.011572
    H      z   -0.005473   -0.001064    0.004902   -0.016151    0.745000

    H      x    0.063643    0.021285    0.008381   -0.024167    0.018649
    H      y   -0.411767   -0.111509   -0.109349    0.430745    0.003298
    H      z    0.000770   -0.000116    0.000990   -0.004521    0.214749

    H      x    0.052200    0.052827   -0.093558    0.320354   -0.037352
    H      y   -0.026652   -0.059963    0.097850   -0.303187   -0.006568
    H      z   -0.004108   -0.003648    0.006726   -0.023137   -0.429154

    O      x    0.002838    0.019247   -0.019724    0.018458   -0.000031
    O      y    0.013619   -0.060942   -0.065945   -0.039690   -0.000033
    O      z   -0.000479   -0.000663    0.002930   -0.000905   -0.000586


               16  1145    17  1132    18  1116    19   968    20   899 
  ----------------------------------------------------------------------

    C      x   -0.052878    0.000313    0.008368    0.021515   -0.008144
    C      y    0.143275    0.000014    0.001322    0.069134   -0.001620
    C      z    0.002470    0.003444    0.095589   -0.003031   -0.092582

    C      x   -0.047086   -0.000936   -0.008921   -0.075564   -0.008411
    C      y   -0.079357   -0.000144   -0.001543    0.172183   -0.001555
    C      z    0.005206   -0.010823   -0.103740    0.003800   -0.095745

    C      x    0.012730    0.002398   -0.000568   -0.068901    0.007102
    C      y    0.009660    0.000423   -0.000111   -0.071583    0.001357
    C      z   -0.001268    0.027690   -0.006329    0.007167    0.079967

    C      x    0.003470   -0.011685    0.001076    0.002205    0.000292
    C      y    0.060458   -0.002100    0.000109   -0.092306    0.000147
    C      z   -0.001265   -0.134560    0.012582    0.001247    0.003034

    H      x    0.137586    0.000942    0.000392    0.072973    0.006641
    H      y   -0.188286    0.000183    0.000576   -0.028756    0.001285
    H      z   -0.008612    0.010667    0.007469   -0.005716    0.074542

    H      x   -0.116383    0.000630   -0.050289    0.183245    0.049938
    H      y    0.167034    0.000065   -0.009537    0.022758    0.009076
    H      z    0.006333    0.006926   -0.584344   -0.015977    0.579709

    H      x   -0.295342    0.001233    0.053213   -0.082183    0.040819
    H      y   -0.277962    0.000288    0.010038    0.178374    0.007482
    H      z    0.030714    0.013596    0.610901    0.004535    0.473008

    H      x    0.015711    0.017632    0.009929   -0.077849   -0.002431
    H      y   -0.023800    0.003167    0.001878   -0.166639   -0.000443
    H      z   -0.001003    0.202837    0.114360    0.009384   -0.029647

    H      x   -0.012799    0.063343    0.003699    0.016834    0.012302
    H      y   -0.050880    0.011304    0.000822    0.016005    0.001805
    H      z    0.002047    0.729656    0.042396   -0.001609    0.141993

    H      x   -0.153762    0.037326   -0.010566    0.124023   -0.028362
    H      y    0.166427    0.006597   -0.002211   -0.177412   -0.004591
    H      z    0.010931    0.429376   -0.124879   -0.008332   -0.321791

    O      x    0.089622   -0.000196   -0.000368    0.075652    0.001901
    O      y   -0.087486   -0.000006    0.000069   -0.048281    0.000333
    O      z   -0.006404   -0.002061   -0.002729   -0.005774    0.021189


               21   829    22   764    23   456    24   439    25   246 
  ----------------------------------------------------------------------

    C      x   -0.074231   -0.008980    0.011490   -0.017795    0.003949
    C      y   -0.118610   -0.001628    0.001919   -0.107569    0.000627
    C      z    0.008341   -0.104018    0.133175    0.002934    0.042497

    C      x   -0.107174    0.006712   -0.011642   -0.043108   -0.000106
    C      y    0.073030    0.001186   -0.002171   -0.045345   -0.000762
    C      z    0.008278    0.077102   -0.133059    0.004715   -0.005457

    C      x    0.107614   -0.011118   -0.002457   -0.135436   -0.002151
    C      y    0.055883   -0.001998   -0.000361    0.012836   -0.000573
    C      z   -0.010369   -0.127246   -0.024999    0.011609   -0.019002

    C      x    0.021629    0.001273    0.002531    0.042962    0.001428
    C      y    0.010555    0.000218    0.000669    0.111437   -0.000318
    C      z   -0.002041    0.014685    0.028146   -0.005529    0.036511

    H      x   -0.040137    0.007638   -0.019599    0.046589    0.077888
    H      y    0.247362    0.000934   -0.003264    0.141961    0.018562
    H      z   -0.000938    0.084832   -0.222175   -0.006281    0.869344

    H      x   -0.055667    0.005986    0.036986   -0.065808    0.006588
    H      y   -0.125887    0.001120    0.006636   -0.091186    0.001687
    H      z    0.006059    0.068926    0.428718    0.006113    0.086103

    H      x   -0.085721    0.042210   -0.006003    0.042331   -0.001171
    H      y    0.086692    0.007745   -0.001013    0.025211   -0.000876
    H      z    0.005750    0.486565   -0.070035   -0.004070   -0.019060

    H      x    0.105011    0.012943    0.022930   -0.133891   -0.004206
    H      y   -0.067035    0.002292    0.004081   -0.029906    0.000060
    H      z   -0.008001    0.149326    0.266779    0.011499   -0.042838

    H      x   -0.011886   -0.020031   -0.022427    0.066964    0.001842
    H      y   -0.320504   -0.003417   -0.003246    0.350065   -0.001298
    H      z    0.005731   -0.230927   -0.260008   -0.010678    0.041868

    H      x   -0.248717    0.042864    0.034026    0.243149    0.002939
    H      y    0.184960    0.007498    0.005903   -0.016951    0.000670
    H      z    0.019315    0.491733    0.385454   -0.021712    0.063907

    O      x    0.060375    0.003316   -0.002835    0.102510   -0.007626
    O      y   -0.016000    0.000649   -0.000615   -0.002406   -0.000416
    O      z   -0.004916    0.038453   -0.035763   -0.008717   -0.103891


               26   239    27    99 
  ----------------------------------

    C      x   -0.020523   -0.005376
    C      y   -0.003074   -0.001010
    C      z    0.002292   -0.062212

    C      x   -0.031551   -0.004318
    C      y    0.055722   -0.000816
    C      z    0.001786   -0.050035

    C      x    0.038621    0.010651
    C      y    0.025813    0.001892
    C      z   -0.003905    0.122632

    C      x    0.143507   -0.008661
    C      y    0.076134   -0.001541
    C      z   -0.013211   -0.098808

    H      x   -0.079467    0.025659
    H      y   -0.212472    0.004935
    H      z    0.021037    0.290491

    H      x    0.071497   -0.016202
    H      y   -0.034200   -0.002976
    H      z   -0.004724   -0.186854

    H      x   -0.034665   -0.014226
    H      y    0.051527   -0.002644
    H      z    0.001922   -0.164352

    H      x    0.037038    0.039239
    H      y   -0.057559    0.007022
    H      z   -0.002613    0.451234

    H      x    0.148188   -0.038086
    H      y    0.166061   -0.006806
    H      z   -0.015072   -0.437799

    H      x    0.216820    0.005553
    H      y    0.027932    0.000991
    H      z   -0.018436    0.064836

    O      x   -0.120217    0.005658
    O      y   -0.112285    0.001073
    O      z    0.010908    0.065232




  Dipole Gradient in Normal Coordinate Basis (D/(A*amu**(1/2)))
  -------------------------------------------------------------


  mode           dMA/dQi        dMB/dQi        dMC/dQi
  ----------------------------------------------------
   1            1.513642       0.375985      -0.139905
   2           -0.279408      -0.274342       0.028608
   3            0.136034      -0.851910       0.001606
   4           -0.680867      -0.316838       0.064113
   5           -0.168004      -0.655416       0.024710
   6           -0.654219      -0.042431       0.057652
   7            1.271788       0.469787      -0.117438
   8            0.129092       0.279068      -0.015556
   9            0.094529       0.282823      -0.012650
  10           -0.370727       0.114249       0.030201
  11            0.133294      -0.215990      -0.008113
  12           -0.930652       0.264298       0.076329
  13           -1.584531       0.813622       0.123861
  14           -0.537452       0.664462       0.035624
  15            0.029824       0.005114       0.348206
  16           -1.314562      -0.214137       0.118011
  17            0.126104       0.022865       1.443396
  18            0.015939       0.003973       0.153926
  19           -0.487373       0.049865       0.041881
  20            0.068334       0.012278       0.807242
  21           -0.425329       0.561540       0.026280
  22            0.057622       0.009230       0.654529
  23            0.021099       0.003791       0.281162
  24           -0.353318       0.001808       0.028560
  25            0.207444       0.045273       2.354378
  26            0.303207      -0.113055       0.004582
  27            0.027678       0.005667       0.301251



                              Total Molecular Energy
                              ----------------------

             electronic     vibrational           total    energy 

            -229.680389        0.097572     -229.582817    Hartrees
           -50409018.30        21414.54    -50387603.76    cm-1
             -603025.77          256.17      -602769.59    kJ/mol
             -144126.62           61.23      -144065.39    kcal/mol


                          Molecular Partition Functions
                          -----------------------------

 Qtran is evaluated per mol at 1 atm. pressure.
 Qrot does not include symmetry numbers.
 Qvib does not include zero point energies
 (i.e., energy scale has vibrational ground state as zero).


 Temp.(K)  Translational     Rotational    Vibrational      Total

    50.00     2.6535D+05        5517.99         1.0636   1.557289D+09
   100.00     1.5011D+06       15599.96         1.4061   3.292673D+10
   200.00     8.4913D+06       44113.09         3.1624   1.184575D+12
   273.15     1.8510D+07       70403.98         6.1317   7.990636D+12
   298.15     2.3040D+07       80286.30         7.7451   1.432702D+13
   300.00     2.3399D+07       81034.64         7.8812   1.494399D+13
   400.00     4.8034D+07      124756.14        20.7296   1.242231D+14
   500.00     8.3912D+07      174347.95        56.8118   8.311525D+14
   600.00     1.3237D+08      229182.78       159.5981   4.841591D+15
   700.00     1.9460D+08      288800.11       452.4062   2.542561D+16
   800.00     2.7172D+08      352843.13      1278.5325   1.225798D+17
   900.00     3.6476D+08      421024.76      3572.7035   5.486700D+17
  1000.00     4.7468D+08      493107.52      9819.3431   2.298394D+18
  1500.00     1.3081D+09      905882.31   1115014.3015   1.321237D+21
  2000.00     2.6852D+09     1394686.22  72505645.0743   2.715337D+23


                                +------------------+
                                ! Polarizabilities !
                                +------------------+


 Vibrational polarizabilities calculated acc. to Rinaldi et al.,
 Chem.Phys.Lett. 128 (1986) 177-181.


                        Vibrational Polarizabilities (au)
                        ---------------------------------

                         Ex          Ey          Ez

            Ex       8.792586   -1.660232   10.120359
            Ey      -1.660232    1.975980    2.345911
            Ez      10.120359    2.345911  119.898678



                   Vibrational Polarizabilities (angstroms**3)
                   -------------------------------------------

                         Ex          Ey          Ez

            Ex       1.302927   -0.246021    1.499682
            Ey      -0.246021    0.292810    0.347628
            Ez       1.499682    0.347628   17.767151



                   Vibrational Polarizabilities (angstroms**3)
                   -------------------------------------------

               (Along principal axes of moments of inertia)

                         EA          EB          EC

            EA       0.556039   -0.490683    0.077204
            EB      -0.490683    0.898590    0.004120
            EC       0.077204    0.004120   17.908258



 Vibrational mean polarization :   16.3005 cm**3 mol**-1


 CPU time statistics for ABACUS
 ------------------------------

 TWOTEX     00:00:02      53 %
 REST       00:00:01      47 %

 TOTAL      00:00:03     100 %


  Total CPU  time used in ABACUS:   3.06 seconds
  Total wall time used in ABACUS:   3.08 seconds


                   .-------------------------------------------.
                   | End of Static Property Section (ABACUS) - |
                   `-------------------------------------------'

  Total CPU  time used in DALTON:   3.38 seconds
  Total wall time used in DALTON:   4.06 seconds

 
     Date and time (Linux)  : Tue Mar 26 11:33:27 2024
     Host name              : node103                                 
