[Molden Format]
[GTO]
    1 0
 s  10 1.00
    3047.5249000    0.0018347000
     457.3695100    0.0140373000
     103.9486900    0.0688426000
      29.2101550    0.2321844000
       9.2866630    0.4679413000
       3.1639270    0.3623120000
       7.8682724    0.0000000000
       1.8812885    0.0000000000
       0.5442493    0.0000000000
       0.1687144    0.0000000000
 s  10 1.00
    3047.5249000    0.0000000000
     457.3695100    0.0000000000
     103.9486900    0.0000000000
      29.2101550    0.0000000000
       9.2866630    0.0000000000
       3.1639270    0.0000000000
       7.8682724   -0.1193324000
       1.8812885   -0.1608542000
       0.5442493    1.1434564000
       0.1687144    0.0000000000
 s  10 1.00
    3047.5249000    0.0000000000
     457.3695100    0.0000000000
     103.9486900    0.0000000000
      29.2101550    0.0000000000
       9.2866630    0.0000000000
       3.1639270    0.0000000000
       7.8682724    0.0000000000
       1.8812885    0.0000000000
       0.5442493    0.0000000000
       0.1687144    1.0000000000
 p   4 1.00
       7.8682724    0.0689991000
       1.8812885    0.3164240000
       0.5442493    0.7443083000
       0.1687144    0.0000000000
 p   4 1.00
       7.8682724    0.0000000000
       1.8812885    0.0000000000
       0.5442493    0.0000000000
       0.1687144    1.0000000000

    2 0
 s  10 1.00
    3047.5249000    0.0018347000
     457.3695100    0.0140373000
     103.9486900    0.0688426000
      29.2101550    0.2321844000
       9.2866630    0.4679413000
       3.1639270    0.3623120000
       7.8682724    0.0000000000
       1.8812885    0.0000000000
       0.5442493    0.0000000000
       0.1687144    0.0000000000
 s  10 1.00
    3047.5249000    0.0000000000
     457.3695100    0.0000000000
     103.9486900    0.0000000000
      29.2101550    0.0000000000
       9.2866630    0.0000000000
       3.1639270    0.0000000000
       7.8682724   -0.1193324000
       1.8812885   -0.1608542000
       0.5442493    1.1434564000
       0.1687144    0.0000000000
 s  10 1.00
    3047.5249000    0.0000000000
     457.3695100    0.0000000000
     103.9486900    0.0000000000
      29.2101550    0.0000000000
       9.2866630    0.0000000000
       3.1639270    0.0000000000
       7.8682724    0.0000000000
       1.8812885    0.0000000000
       0.5442493    0.0000000000
       0.1687144    1.0000000000
 p   4 1.00
       7.8682724    0.0689991000
       1.8812885    0.3164240000
       0.5442493    0.7443083000
       0.1687144    0.0000000000
 p   4 1.00
       7.8682724    0.0000000000
       1.8812885    0.0000000000
       0.5442493    0.0000000000
       0.1687144    1.0000000000

    3 0
 s  10 1.00
    3047.5249000    0.0018347000
     457.3695100    0.0140373000
     103.9486900    0.0688426000
      29.2101550    0.2321844000
       9.2866630    0.4679413000
       3.1639270    0.3623120000
       7.8682724    0.0000000000
       1.8812885    0.0000000000
       0.5442493    0.0000000000
       0.1687144    0.0000000000
 s  10 1.00
    3047.5249000    0.0000000000
     457.3695100    0.0000000000
     103.9486900    0.0000000000
      29.2101550    0.0000000000
       9.2866630    0.0000000000
       3.1639270    0.0000000000
       7.8682724   -0.1193324000
       1.8812885   -0.1608542000
       0.5442493    1.1434564000
       0.1687144    0.0000000000
 s  10 1.00
    3047.5249000    0.0000000000
     457.3695100    0.0000000000
     103.9486900    0.0000000000
      29.2101550    0.0000000000
       9.2866630    0.0000000000
       3.1639270    0.0000000000
       7.8682724    0.0000000000
       1.8812885    0.0000000000
       0.5442493    0.0000000000
       0.1687144    1.0000000000
 p   4 1.00
       7.8682724    0.0689991000
       1.8812885    0.3164240000
       0.5442493    0.7443083000
       0.1687144    0.0000000000
 p   4 1.00
       7.8682724    0.0000000000
       1.8812885    0.0000000000
       0.5442493    0.0000000000
       0.1687144    1.0000000000

    4 0
 s  10 1.00
    3047.5249000    0.0018347000
     457.3695100    0.0140373000
     103.9486900    0.0688426000
      29.2101550    0.2321844000
       9.2866630    0.4679413000
       3.1639270    0.3623120000
       7.8682724    0.0000000000
       1.8812885    0.0000000000
       0.5442493    0.0000000000
       0.1687144    0.0000000000
 s  10 1.00
    3047.5249000    0.0000000000
     457.3695100    0.0000000000
     103.9486900    0.0000000000
      29.2101550    0.0000000000
       9.2866630    0.0000000000
       3.1639270    0.0000000000
       7.8682724   -0.1193324000
       1.8812885   -0.1608542000
       0.5442493    1.1434564000
       0.1687144    0.0000000000
 s  10 1.00
    3047.5249000    0.0000000000
     457.3695100    0.0000000000
     103.9486900    0.0000000000
      29.2101550    0.0000000000
       9.2866630    0.0000000000
       3.1639270    0.0000000000
       7.8682724    0.0000000000
       1.8812885    0.0000000000
       0.5442493    0.0000000000
       0.1687144    1.0000000000
 p   4 1.00
       7.8682724    0.0689991000
       1.8812885    0.3164240000
       0.5442493    0.7443083000
       0.1687144    0.0000000000
 p   4 1.00
       7.8682724    0.0000000000
       1.8812885    0.0000000000
       0.5442493    0.0000000000
       0.1687144    1.0000000000

    5 0
 s   4 1.00
      18.7311370    0.0334946000
       2.8253937    0.2347269500
       0.6401217    0.8137573300
       0.1612778    0.0000000000
 s   4 1.00
      18.7311370    0.0000000000
       2.8253937    0.0000000000
       0.6401217    0.0000000000
       0.1612778    1.0000000000

    6 0
 s   4 1.00
      18.7311370    0.0334946000
       2.8253937    0.2347269500
       0.6401217    0.8137573300
       0.1612778    0.0000000000
 s   4 1.00
      18.7311370    0.0000000000
       2.8253937    0.0000000000
       0.6401217    0.0000000000
       0.1612778    1.0000000000

    7 0
 s   4 1.00
      18.7311370    0.0334946000
       2.8253937    0.2347269500
       0.6401217    0.8137573300
       0.1612778    0.0000000000
 s   4 1.00
      18.7311370    0.0000000000
       2.8253937    0.0000000000
       0.6401217    0.0000000000
       0.1612778    1.0000000000

    8 0
 s   4 1.00
      18.7311370    0.0334946000
       2.8253937    0.2347269500
       0.6401217    0.8137573300
       0.1612778    0.0000000000
 s   4 1.00
      18.7311370    0.0000000000
       2.8253937    0.0000000000
       0.6401217    0.0000000000
       0.1612778    1.0000000000

    9 0
 s   4 1.00
      18.7311370    0.0334946000
       2.8253937    0.2347269500
       0.6401217    0.8137573300
       0.1612778    0.0000000000
 s   4 1.00
      18.7311370    0.0000000000
       2.8253937    0.0000000000
       0.6401217    0.0000000000
       0.1612778    1.0000000000

   10 0
 s   4 1.00
      18.7311370    0.0334946000
       2.8253937    0.2347269500
       0.6401217    0.8137573300
       0.1612778    0.0000000000
 s   4 1.00
      18.7311370    0.0000000000
       2.8253937    0.0000000000
       0.6401217    0.0000000000
       0.1612778    1.0000000000

   11 0
 s  10 1.00
    5484.6717000    0.0018311000
     825.2349500    0.0139501000
     188.0469600    0.0684451000
      52.9645000    0.2327143000
      16.8975700    0.4701930000
       5.7996353    0.3585209000
      15.5396160    0.0000000000
       3.5999336    0.0000000000
       1.0137618    0.0000000000
       0.2700058    0.0000000000
 s  10 1.00
    5484.6717000    0.0000000000
     825.2349500    0.0000000000
     188.0469600    0.0000000000
      52.9645000    0.0000000000
      16.8975700    0.0000000000
       5.7996353    0.0000000000
      15.5396160   -0.1107775000
       3.5999336   -0.1480263000
       1.0137618    1.1307670000
       0.2700058    0.0000000000
 s  10 1.00
    5484.6717000    0.0000000000
     825.2349500    0.0000000000
     188.0469600    0.0000000000
      52.9645000    0.0000000000
      16.8975700    0.0000000000
       5.7996353    0.0000000000
      15.5396160    0.0000000000
       3.5999336    0.0000000000
       1.0137618    0.0000000000
       0.2700058    1.0000000000
 p   4 1.00
      15.5396160    0.0708743000
       3.5999336    0.3397528000
       1.0137618    0.7271586000
       0.2700058    0.0000000000
 p   4 1.00
      15.5396160    0.0000000000
       3.5999336    0.0000000000
       1.0137618    0.0000000000
       0.2700058    1.0000000000

[SCFCONV]
scf-first  1  THROUGH  12
     -228.9860674272
     -229.6259964879
     -229.6737286933
     -229.6795377489
     -229.6802794773
     -229.6803773659
     -229.6803882036
     -229.6803891206
     -229.6803892489
     -229.6803892590
     -229.6803892594
     -229.6803892594
[FREQ]
   4068.86
   3452.18
   3376.00
   3347.53
   3339.81
   3312.03
   1908.37
   1845.69
   1620.72
   1585.72
   1494.14
   1420.59
   1338.10
   1219.38
   1168.76
   1144.85
   1131.59
   1116.13
    967.76
    898.87
    829.12
    763.93
    455.82
    439.11
    245.84
    239.22
     98.95

[FR-COORD]
 C       -15.5205783621         4.4066444231         0.3168473811
 C       -13.0947682960         4.9861395123         0.0973368950
 C       -11.9135763465         7.4877208720        -0.0444121200
 C       -13.0373249554         9.7346736901         0.0187239024
 H       -19.0572765370         5.5435541124         0.6090462751
 H       -16.1430055647         2.4790129571         0.4012609367
 H       -11.8208911268         3.4078007490         0.0122129098
 H        -9.8873543435         7.4350399139        -0.2198791303
 H       -15.0406326615         9.9397344342         0.1894119086
 H       -11.9352956789        11.4342255465        -0.1032814187
 O       -17.3993318580         6.2040232270         0.4504145701

[FR-NORM-COORD]
Vibration          1
          -0.00025712          -0.00319803           0.00007772
           0.00084569           0.00013995          -0.00007474
          -0.00011464          -0.00015473           0.00001297
           0.00008504           0.00005992          -0.00000843
           0.89975576           0.34070602          -0.08572894
           0.00688701           0.00715949          -0.00071939
          -0.00018248          -0.00058997           0.00001779
           0.00041005           0.00005084          -0.00003545
          -0.00079652           0.00026071           0.00006339
          -0.00015994           0.00034448           0.00001010
          -0.05750017          -0.01955744           0.00543788
Vibration          2
           0.00059472           0.00124151          -0.00007106
          -0.00062202           0.00133949           0.00003273
          -0.00485352          -0.00309445           0.00046983
          -0.08922667          -0.01879273           0.00803772
           0.00075603          -0.00148486          -0.00004462
          -0.00396841          -0.01144044           0.00052508
           0.00730587          -0.00843135          -0.00049954
           0.06471331          -0.00373855          -0.00557532
           0.83575704          -0.09108333          -0.07113972
           0.22500665           0.35271181          -0.02499833
          -0.00057015          -0.00041951           0.00005614
Vibration          3
          -0.02956664          -0.06658240           0.00361865
           0.03460960          -0.03120377          -0.00250132
           0.01014910           0.00054095          -0.00089137
          -0.00247242           0.00331594           0.00016351
          -0.00685666          -0.00844182           0.00077080
           0.25308162           0.75593614          -0.03389929
          -0.31945893           0.38347005           0.02155441
          -0.11108952          -0.00044970           0.00966864
           0.04229859          -0.00291850          -0.00362646
          -0.01644625          -0.02544119           0.00182179
           0.00044236           0.00102357          -0.00005843
Vibration          4
          -0.01134901          -0.03266995           0.00150192
          -0.02619635           0.03478195           0.00171399
          -0.03762260           0.00631507           0.00317583
           0.00429507          -0.04298223           0.00029182
          -0.00384825          -0.00354339           0.00040854
           0.12738102           0.39189285          -0.01724055
           0.32255073          -0.40098277          -0.02154247
           0.40059014          -0.01087679          -0.03467699
          -0.28110996           0.02281688           0.02404970
           0.26689345           0.40772798          -0.02948926
           0.00071921           0.00027772          -0.00006861
Vibration          5
           0.00733779           0.02405420          -0.00101705
           0.03181853          -0.03749990          -0.00215781
          -0.01060239           0.00700201           0.00081414
           0.00120241          -0.05133479           0.00069004
           0.00243345           0.00239163          -0.00025466
          -0.09578980          -0.29502879           0.01297067
          -0.36651462           0.44534511           0.02464150
           0.09225020          -0.00583913          -0.00793494
          -0.32040473           0.02452765           0.02743684
           0.33878319           0.51385296          -0.03737078
          -0.00031890           0.00017071           0.00002545
Vibration          6
           0.00122156           0.00383167          -0.00016621
           0.01432994          -0.01485717          -0.00100407
          -0.07158173           0.00273230           0.00618476
           0.00634203           0.02302037          -0.00090734
           0.00021572          -0.00036601          -0.00001073
          -0.01788971          -0.05299232           0.00238813
          -0.15993163           0.18984412           0.01082350
           0.84700110          -0.02399457          -0.07331344
           0.11591261          -0.00651903          -0.00996076
          -0.18847151          -0.28432465           0.02076793
          -0.00032813           0.00018894           0.00002535
Vibration          7
           0.19025647           0.02089763          -0.01684749
          -0.17242064          -0.06884904           0.01603988
           0.02974880          -0.00371572          -0.00252788
          -0.00964084           0.01241675           0.00064504
          -0.07753684           0.14703561           0.00413398
          -0.13074079           0.16657686           0.00867099
           0.06893417           0.16068515          -0.00851537
           0.03692541           0.10399873          -0.00481213
          -0.01413872           0.00080818           0.00121906
           0.02723114          -0.00501026          -0.00229279
          -0.02283857          -0.00672601           0.00211906
Vibration          8
           0.01723086           0.00727176          -0.00161169
          -0.01211643          -0.04026583           0.00168276
          -0.05045710           0.18916903           0.00146215
           0.06520073          -0.15436936          -0.00328993
          -0.01041233           0.02270348           0.00049322
           0.02085699           0.00610243          -0.00190235
          -0.04195027          -0.06817710           0.00470622
          -0.08134892          -0.20517255           0.01025562
           0.13316616           0.22898035          -0.01514165
          -0.22089079           0.00717416           0.01908248
          -0.00225998          -0.00082603           0.00021571
Vibration          9
           0.04203413          -0.03908372          -0.00302818
           0.03355579           0.07638216          -0.00411154
          -0.01586392          -0.09480515           0.00284543
           0.03635693          -0.02376057          -0.00278833
          -0.02857684           0.04208243           0.00174995
          -0.35433433           0.09190537           0.02921638
          -0.19295836          -0.10496521           0.01842802
          -0.01069190           0.25261322          -0.00299595
           0.07315914           0.41707710          -0.01283350
          -0.45595305           0.31074845           0.03481784
          -0.01100691          -0.00263541           0.00100491
Vibration         10
          -0.07165772           0.04244917           0.00554728
          -0.05456367          -0.05984905           0.00567848
           0.03315230          -0.04727731          -0.00214105
           0.00958962          -0.01550833          -0.00059162
           0.05023195          -0.08052908          -0.00294450
           0.48771935          -0.14224151          -0.03997401
           0.38575427           0.30430427          -0.03828338
           0.04624444           0.21388411          -0.00734472
           0.03818698           0.32550692          -0.00835357
          -0.28047108           0.18728316           0.02145609
           0.01677994           0.00923381          -0.00161818
Vibration         11
          -0.00225210          -0.00724631           0.00032518
          -0.01914579          -0.00291915           0.00171097
          -0.08118939           0.01977055           0.00675511
           0.09127726          -0.03572530          -0.00738476
           0.03455163          -0.07358088          -0.00173389
           0.13345848          -0.05163354          -0.01071674
          -0.12467071          -0.08525104           0.01211778
          -0.06955914           0.74374497          -0.00547296
           0.06364265          -0.41176722           0.00077040
           0.05220049          -0.02665173          -0.00410845
           0.00283813           0.01361931          -0.00047907
Vibration         12
          -0.06905026           0.04568859           0.00523614
           0.03809671          -0.00209614          -0.00327352
          -0.01424667           0.01744663           0.00098043
           0.02407635          -0.03472824          -0.00156091
          -0.03826951           0.10931191           0.00142423
          -0.56838516           0.20953977           0.04573547
           0.49067375           0.37022761          -0.04826459
          -0.01207600           0.13631141          -0.00106351
           0.02128504          -0.11150869          -0.00011603
           0.05282690          -0.05996274          -0.00364820
           0.01924697          -0.06094227          -0.00066313
Vibration         13
           0.00840530           0.06172312          -0.00188538
           0.05782488          -0.01826881          -0.00470826
          -0.04613800          -0.02628975           0.00440775
           0.02352340           0.02264105          -0.00240424
          -0.32448158           0.74684848           0.01528195
           0.26945480          -0.02218736          -0.02291168
          -0.01995961          -0.08209454           0.00317126
          -0.04612872          -0.05843019           0.00490183
           0.00838130          -0.10934883           0.00099040
          -0.09355833           0.09785014           0.00672629
          -0.01972381          -0.06594508           0.00292954
Vibration         14
          -0.04824250           0.00124549           0.00408162
          -0.00962136           0.00899577           0.00072316
           0.10160419           0.04048703          -0.00946633
          -0.07856632          -0.05027093           0.00759824
          -0.08474965           0.23912909           0.00323416
          -0.01379047          -0.01307140           0.00148892
          -0.18759574          -0.14127467           0.01848345
           0.11167229           0.41211967          -0.01615131
          -0.02416658           0.43074534          -0.00452138
           0.32035446          -0.30318683          -0.02313672
           0.01845806          -0.03968986          -0.00090505
Vibration         15
          -0.00098262          -0.00014001          -0.01110181
           0.00241370           0.00040643           0.02785739
          -0.00926176          -0.00164046          -0.10656743
           0.00450793           0.00081588           0.05181879
           0.00026652           0.00003402           0.00276367
           0.00521744           0.00101722           0.06098937
          -0.01154255          -0.00219228          -0.13266932
           0.06482080           0.01157245           0.74500018
           0.01864857           0.00329821           0.21474930
          -0.03735194          -0.00656779          -0.42915373
          -0.00003122          -0.00003251          -0.00058614
Vibration         16
          -0.05287816           0.14327479           0.00246954
          -0.04708630          -0.07935675           0.00520578
           0.01272989           0.00965995          -0.00126811
           0.00346976           0.06045767          -0.00126489
           0.13758644          -0.18828610          -0.00861196
          -0.11638304           0.16703407           0.00633349
          -0.29534168          -0.27796235           0.03071401
           0.01571101          -0.02380038          -0.00100306
          -0.01279908          -0.05087977           0.00204731
          -0.15376162           0.16642673           0.01093059
           0.08962169          -0.08748635          -0.00640418
Vibration         17
           0.00031343           0.00001441           0.00344399
          -0.00093588          -0.00014359          -0.01082323
           0.00239787           0.00042309           0.02768961
          -0.01168548          -0.00209991          -0.13456016
           0.00094237           0.00018298           0.01066704
           0.00062994           0.00006503           0.00692644
           0.00123308           0.00028760           0.01359649
           0.01763222           0.00316659           0.20283673
           0.06334310           0.01130444           0.72965589
           0.03732640           0.00659713           0.42937590
          -0.00019595          -0.00000631          -0.00206076
Vibration         18
           0.00836763           0.00132235           0.09558876
          -0.00892136          -0.00154334          -0.10373991
          -0.00056809          -0.00011130          -0.00632852
           0.00107621           0.00010917           0.01258177
           0.00039161           0.00057589           0.00746907
          -0.05028859          -0.00953669          -0.58434379
           0.05321315           0.01003789           0.61090053
           0.00992940           0.00187787           0.11436025
           0.00369882           0.00082197           0.04239555
          -0.01056603          -0.00221109          -0.12487873
          -0.00036768           0.00006873          -0.00272861
Vibration         19
           0.02151456           0.06913422          -0.00303124
          -0.07556387           0.17218287           0.00380042
          -0.06890062          -0.07158345           0.00716705
           0.00220465          -0.09230569           0.00124728
           0.07297251          -0.02875619          -0.00571609
           0.18324489           0.02275846          -0.01597652
          -0.08218294           0.17837435           0.00453548
          -0.07784874          -0.16663909           0.00938428
           0.01683381           0.01600504          -0.00160938
           0.12402283          -0.17741171          -0.00833195
           0.07565193          -0.04828086          -0.00577367
Vibration         20
          -0.00814428          -0.00161965          -0.09258177
          -0.00841102          -0.00155548          -0.09574503
           0.00710174           0.00135740           0.07996675
           0.00029208           0.00014656           0.00303409
           0.00664146           0.00128453           0.07454173
           0.04993763           0.00907599           0.57970851
           0.04081893           0.00748247           0.47300830
          -0.00243075          -0.00044347          -0.02964726
           0.01230192           0.00180531           0.14199289
          -0.02836238          -0.00459126          -0.32179104
           0.00190146           0.00033298           0.02118901
Vibration         21
          -0.07423141          -0.11861044           0.00834085
          -0.10717359           0.07302951           0.00827777
           0.10761444           0.05588255          -0.01036891
           0.02162913           0.01055516          -0.00204110
          -0.04013747           0.24736214          -0.00093764
          -0.05566746          -0.12588669           0.00605871
          -0.08572075           0.08669180           0.00574956
           0.10501106          -0.06703513          -0.00800120
          -0.01188562          -0.32050426           0.00573140
          -0.24871729           0.18496035           0.01931491
           0.06037498          -0.01599966          -0.00491641
Vibration         22
          -0.00898005          -0.00162828          -0.10401799
           0.00671181           0.00118611           0.07710152
          -0.01111800          -0.00199822          -0.12724557
           0.00127276           0.00021780           0.01468526
           0.00763778           0.00093429           0.08483173
           0.00598584           0.00112030           0.06892552
           0.04220993           0.00774470           0.48656512
           0.01294348           0.00229165           0.14932560
          -0.02003098          -0.00341746          -0.23092663
           0.04286372           0.00749760           0.49173329
           0.00331575           0.00064855           0.03845266
Vibration         23
           0.01149045           0.00191883           0.13317521
          -0.01164194          -0.00217064          -0.13305870
          -0.00245662          -0.00036144          -0.02499902
           0.00253099           0.00066853           0.02814570
          -0.01959936          -0.00326391          -0.22217536
           0.03698551           0.00663586           0.42871763
          -0.00600344          -0.00101292          -0.07003549
           0.02293021           0.00408066           0.26677881
          -0.02242683          -0.00324610          -0.26000834
           0.03402563           0.00590279           0.38545419
          -0.00283500          -0.00061464          -0.03576306
Vibration         24
          -0.01779505          -0.10756855           0.00293416
          -0.04310790          -0.04534493           0.00471528
          -0.13543647           0.01283614           0.01160926
           0.04296188           0.11143719          -0.00552909
           0.04658931           0.14196134          -0.00628149
          -0.06580788          -0.09118647           0.00611314
           0.04233107           0.02521086          -0.00407016
          -0.13389057          -0.02990591           0.01149876
           0.06696401           0.35006480          -0.01067818
           0.24314933          -0.01695068          -0.02171246
           0.10250979          -0.00240572          -0.00871703
Vibration         25
           0.00394918           0.00062725           0.04249684
          -0.00010648          -0.00076162          -0.00545651
          -0.00215107          -0.00057288          -0.01900233
           0.00142845          -0.00031809           0.03651091
           0.07788801           0.01856218           0.86934411
           0.00658753           0.00168720           0.08610258
          -0.00117096          -0.00087607          -0.01906024
          -0.00420611           0.00006012          -0.04283817
           0.00184163          -0.00129812           0.04186823
           0.00293886           0.00067026           0.06390725
          -0.00762594          -0.00041567          -0.10389116
Vibration         26
          -0.02052278          -0.00307360           0.00229249
          -0.03155093           0.05572245           0.00178563
           0.03862064           0.02581340          -0.00390472
           0.14350680           0.07613395          -0.01321082
          -0.07946654          -0.21247155           0.02103673
           0.07149677          -0.03419961          -0.00472410
          -0.03466530           0.05152685           0.00192240
           0.03703786          -0.05755938          -0.00261320
           0.14818781           0.16606066          -0.01507210
           0.21682015           0.02793203          -0.01843553
          -0.12021745          -0.11228469           0.01090814
Vibration         27
          -0.00537610          -0.00100995          -0.06221154
          -0.00431844          -0.00081567          -0.05003503
           0.01065135           0.00189221           0.12263157
          -0.00866149          -0.00154075          -0.09880788
           0.02565918           0.00493475           0.29049079
          -0.01620245          -0.00297632          -0.18685396
          -0.01422627          -0.00264369          -0.16435220
           0.03923877           0.00702215           0.45123421
          -0.03808551          -0.00680608          -0.43779881
           0.00555281           0.00099117           0.06483596
           0.00565832           0.00107308           0.06523206
[TITLE]
*** Dalton interface to Molden, wave function type : HF            26Mar24   11:
[Atoms] AU
C          1     6       -15.5205783621         4.4066444231         0.316847381
C          2     6       -13.0947682960         4.9861395123         0.097336895
C          3     6       -11.9135763465         7.4877208720        -0.044412120
C          4     6       -13.0373249554         9.7346736901         0.018723902
H          5     1       -19.0572765370         5.5435541124         0.609046275
H          6     1       -16.1430055647         2.4790129571         0.401260936