[Molden Format]
[GTO]
    1 0
 s   9 1.00
   11720.0000000    0.0007100000
    1759.0000000    0.0054700000
     400.8000000    0.0278370000
     113.7000000    0.1048000000
      37.0300000    0.2830620000
      13.2700000    0.4487190000
       5.0250000    0.2709520000
       1.0130000    0.0154580000
       0.3023000   -0.0025850000
 s   9 1.00
   11720.0000000   -0.0001600000
    1759.0000000   -0.0012630000
     400.8000000   -0.0062670000
     113.7000000   -0.0257160000
      37.0300000   -0.0709240000
      13.2700000   -0.1654110000
       5.0250000   -0.1169550000
       1.0130000    0.5573680000
       0.3023000    0.5727590000
 s   9 1.00
   11720.0000000    0.0000000000
    1759.0000000    0.0000000000
     400.8000000    0.0000000000
     113.7000000    0.0000000000
      37.0300000    0.0000000000
      13.2700000    0.0000000000
       5.0250000    0.0000000000
       1.0130000    0.0000000000
       0.3023000    1.0000000000
 p   4 1.00
      17.7000000    0.0430180000
       3.8540000    0.2289130000
       1.0460000    0.5087280000
       0.2753000    0.4605310000
 p   4 1.00
      17.7000000    0.0000000000
       3.8540000    0.0000000000
       1.0460000    0.0000000000
       0.2753000    1.0000000000
 d   1 1.00
       1.1850000    1.0000000000

    2 0
 s   4 1.00
      13.0100000    0.0196850000
       1.9620000    0.1379770000
       0.4446000    0.4781480000
       0.1220000    0.5012400000
 s   4 1.00
      13.0100000    0.0000000000
       1.9620000    0.0000000000
       0.4446000    0.0000000000
       0.1220000    1.0000000000
 p   1 1.00
       0.7270000    1.0000000000

    3 0
 s   4 1.00
      13.0100000    0.0196850000
       1.9620000    0.1379770000
       0.4446000    0.4781480000
       0.1220000    0.5012400000
 s   4 1.00
      13.0100000    0.0000000000
       1.9620000    0.0000000000
       0.4446000    0.0000000000
       0.1220000    1.0000000000
 p   1 1.00
       0.7270000    1.0000000000

[SCFCONV]
scf-first  1  THROUGH   8
      -76.2143885480
      -76.3761066862
      -76.3831683630
      -76.3832252417
      -76.3832370497
      -76.3832390449
      -76.3832390460
      -76.3832390460
[TITLE]
*** Dalton interface to Molden, wave function type : KS-DFT        26Mar24   12:
[Atoms] AU
O          1     8         0.0000000000         0.0000000000         0.124144424
H          2     1         0.0000000000         1.4315300000        -0.985265576
H          3     1         0.0000000000        -1.4315300000        -0.985265576
[5D7F]
[9G]
[MO]
Sym= A
Ene=  -19.1186
Spin= Alpha
Occup=  2.0000
    1       -1.002651
    2       -0.015008
    3        0.012792
    6        0.002916
    9       -0.002077
   10       -0.000003
   13        0.000445
   15        0.000851
   16       -0.001411
   18       -0.000978
   19        0.000880
   20        0.000851
   21       -0.001411
   23        0.000978
   24        0.000880
Sym= A
Ene=   -0.9913
Spin= Alpha
Occup=  2.0000
    1        0.006473
    2       -0.867951
    3        0.149632
    6        0.167421
    9       -0.085390
   10       -0.002251
   13        0.004571
   15       -0.350412
   16        0.160206
   18        0.037438
   19       -0.018921
   20       -0.350412
   21        0.160206
   23       -0.037438
   24       -0.018921
Sym= A
Ene=   -0.5101
Spin= Alpha
Occup=  2.0000
    5       -0.734081
    8        0.141791
   12        0.023635
   15       -0.562524
   16        0.171426
   18        0.015512
   19       -0.028141
   20        0.562524
   21       -0.171426
   23        0.015512
   24        0.028141
Sym= A
Ene=   -0.3612
Spin= Alpha
Occup=  2.0000
    1        0.007369
    2       -0.325418
    3       -0.192350
    6       -0.796914
    9        0.014063
   10        0.018503
   13       -0.002081
   15        0.340856
   16       -0.123062
   18       -0.024552
   19       -0.015391
   20        0.340856
   21       -0.123062
   23        0.024552
   24       -0.015391
Sym= A
Ene=   -0.2845
Spin= Alpha
Occup=  2.0000
    4        0.926971
    7        0.061918
   11       -0.019298
   17        0.032815
   22        0.032815
Sym= A
Ene=    0.0549
Spin= Alpha
Occup=  0.0000
    1        0.031106
    2       -0.250578
    3       -0.764651
    6        0.354222
    9        0.147914
   10       -0.008311
   13        0.004666
   15        0.180058
   16        0.681189
   18        0.002064
   19        0.004691
   20        0.180058
   21        0.681189
   23       -0.002064
   24        0.004691
Sym= A
Ene=    0.1307
Spin= Alpha
Occup=  0.0000
    5       -0.533340
    8       -0.369147
   12        0.011322
   15        0.164745
   16        1.238401
   18       -0.002733
   19       -0.001591
   20       -0.164745
   21       -1.238401
   23       -0.002733
   24        0.001591
Sym= A
Ene=    0.5641
Spin= Alpha
Occup=  0.0000
    5        0.430142
    8        0.142906
   12        0.106031
   15       -1.602222
   16        1.648136
   18       -0.061911
   19        0.137422
   20        1.602222
   21       -1.648136
   23       -0.061911
   24       -0.137422
Sym= A
Ene=    0.6173
Spin= Alpha
Occup=  0.0000
    1        0.065235
    2        0.476258
    3       -0.601969
    6       -0.548087
    9        0.304730
   10        0.000793
   13        0.097947
   15       -1.370860
   16        1.292488
   18       -0.255617
   19        0.052331
   20       -1.370860
   21        1.292488
   23        0.255617
   24        0.052331
Sym= A
Ene=    0.9049
Spin= Alpha
Occup=  0.0000
    1        0.012920
    2        0.285915
    3        0.487723
    6        1.097125
    9       -1.757872
   10        0.013275
   13        0.016149
   15       -0.924403
   16        0.376110
   18        0.038714
   19       -0.230160
   20       -0.924403
   21        0.376110
   23       -0.038714
   24       -0.230160
Sym= A
Ene=    0.9223
Spin= Alpha
Occup=  0.0000
    4       -1.405594
    7        1.658432
   11        0.002533
   17        0.028137
   22        0.028137
Sym= A
Ene=    0.9984
Spin= Alpha
Occup=  0.0000
    5       -1.086166
    8        2.273833
   12       -0.022731
   15       -0.643628
   16       -0.524196
   18        0.262218
   19       -0.133498
   20        0.643628
   21        0.524196
   23        0.262218
   24        0.133498
Sym= A
Ene=    1.2075
Spin= Alpha
Occup=  0.0000
    1        0.215425
    2        1.098734
    3       -1.181893
    6        0.186567
    9       -0.807445
   10       -0.125137
   13       -0.013353
   15       -0.543466
   16        0.492411
   18        0.333502
   19        0.533217
   20       -0.543466
   21        0.492411
   23       -0.333502
   24        0.533217
Sym= A
Ene=    1.2368
Spin= Alpha
Occup=  0.0000
   14       -0.138876
   17       -0.682956
   22        0.682956
Sym= A
Ene=    1.4304
Spin= Alpha
Occup=  0.0000
    4        0.003179
    7       -0.657686
   11       -0.170229
   17        0.762677
   22        0.762677
Sym= A
Ene=    1.5963
Spin= Alpha
Occup=  0.0000
    1       -0.723916
    2       -3.134979
    3        4.814098
    6       -0.112957
    9       -0.943774
   10       -0.121147
   13        0.110120
   15       -1.381057
   16        0.290139
   18        0.361668
   19        0.039595
   20       -1.381057
   21        0.290139
   23       -0.361668
   24        0.039595
Sym= A
Ene=    1.6743
Spin= Alpha
Occup=  0.0000
    5       -0.023200
    8        0.938363
   12        0.032530
   15       -0.663963
   16        0.223780
   18       -0.460229
   19       -0.700861
   20        0.663963
   21       -0.223780
   23       -0.460229
   24        0.700861
Sym= A
Ene=    2.1186
Spin= Alpha
Occup=  0.0000
    5        1.142723
    8       -0.324681
   12        0.140399
   15       -0.475582
   16       -0.143177
   18        0.740841
   19       -0.556783
   20        0.475582
   21        0.143177
   23        0.740841
   24        0.556783
Sym= A
Ene=    2.1561
Spin= Alpha
Occup=  0.0000
    1       -0.256586
    2       -1.341007
    3       -0.115368
    6        0.923833
    9       -0.205468
   10        0.051274
   13       -0.218344
   15        0.817351
   16       -0.224167
   18       -0.759036
   19        0.548036
   20        0.817351
   21       -0.224167
   23        0.759036
   24        0.548036
Sym= A
Ene=    2.9249
Spin= Alpha
Occup=  0.0000
    4        0.021933
    7       -0.329574
   11        1.041061
   17        0.404570
   22        0.404570
Sym= A
Ene=    2.9695
Spin= Alpha
Occup=  0.0000
   14        1.064843
   17       -0.375533
   22        0.375533
Sym= A
Ene=    3.1363
Spin= Alpha
Occup=  0.0000
    1       -0.084910
    2       -0.309684
    3        0.716607
    6       -0.011916
    9       -0.532711
   10        1.080724
   13        0.190036
   15       -0.499421
   16        0.213054
   18        0.348714
   19        0.326572
   20       -0.499421
   21        0.213054
   23       -0.348714
   24        0.326572
Sym= A
Ene=    3.4702
Spin= Alpha
Occup=  0.0000
    1        0.152625
    2        0.389715
    3       -2.531866
    6        0.570923
    9        0.682432
   10       -0.149397
   13        1.157289
   15        2.105586
   16       -0.850306
   18       -0.631306
   19        0.495714
   20        2.105586
   21       -0.850306
   23        0.631306
   24        0.495714
Sym= A
Ene=    3.7406
Spin= Alpha
Occup=  0.0000
    5       -0.661098
    8       -0.869534
   12        1.326042
   15        1.843838
   16       -0.614148
   18       -0.613885
   19        0.502524
   20       -1.843838
   21        0.614148
   23       -0.613885
   24       -0.502524
[End of Molden output from Dalton]
