[Molden Format]
[GTO]
    1 0
 s   9 1.00
   11720.0000000    0.0007100000
    1759.0000000    0.0054700000
     400.8000000    0.0278370000
     113.7000000    0.1048000000
      37.0300000    0.2830620000
      13.2700000    0.4487190000
       5.0250000    0.2709520000
       1.0130000    0.0154580000
       0.3023000   -0.0025850000
 s   9 1.00
   11720.0000000   -0.0001600000
    1759.0000000   -0.0012630000
     400.8000000   -0.0062670000
     113.7000000   -0.0257160000
      37.0300000   -0.0709240000
      13.2700000   -0.1654110000
       5.0250000   -0.1169550000
       1.0130000    0.5573680000
       0.3023000    0.5727590000
 s   9 1.00
   11720.0000000    0.0000000000
    1759.0000000    0.0000000000
     400.8000000    0.0000000000
     113.7000000    0.0000000000
      37.0300000    0.0000000000
      13.2700000    0.0000000000
       5.0250000    0.0000000000
       1.0130000    0.0000000000
       0.3023000    1.0000000000
 p   4 1.00
      17.7000000    0.0430180000
       3.8540000    0.2289130000
       1.0460000    0.5087280000
       0.2753000    0.4605310000
 p   4 1.00
      17.7000000    0.0000000000
       3.8540000    0.0000000000
       1.0460000    0.0000000000
       0.2753000    1.0000000000
 d   1 1.00
       1.1850000    1.0000000000

    2 0
 s   9 1.00
   11720.0000000    0.0007100000
    1759.0000000    0.0054700000
     400.8000000    0.0278370000
     113.7000000    0.1048000000
      37.0300000    0.2830620000
      13.2700000    0.4487190000
       5.0250000    0.2709520000
       1.0130000    0.0154580000
       0.3023000   -0.0025850000
 s   9 1.00
   11720.0000000   -0.0001600000
    1759.0000000   -0.0012630000
     400.8000000   -0.0062670000
     113.7000000   -0.0257160000
      37.0300000   -0.0709240000
      13.2700000   -0.1654110000
       5.0250000   -0.1169550000
       1.0130000    0.5573680000
       0.3023000    0.5727590000
 s   9 1.00
   11720.0000000    0.0000000000
    1759.0000000    0.0000000000
     400.8000000    0.0000000000
     113.7000000    0.0000000000
      37.0300000    0.0000000000
      13.2700000    0.0000000000
       5.0250000    0.0000000000
       1.0130000    0.0000000000
       0.3023000    1.0000000000
 p   4 1.00
      17.7000000    0.0430180000
       3.8540000    0.2289130000
       1.0460000    0.5087280000
       0.2753000    0.4605310000
 p   4 1.00
      17.7000000    0.0000000000
       3.8540000    0.0000000000
       1.0460000    0.0000000000
       0.2753000    1.0000000000
 d   1 1.00
       1.1850000    1.0000000000

    3 0
 s   4 1.00
      13.0100000    0.0196850000
       1.9620000    0.1379770000
       0.4446000    0.4781480000
       0.1220000    0.5012400000
 s   4 1.00
      13.0100000    0.0000000000
       1.9620000    0.0000000000
       0.4446000    0.0000000000
       0.1220000    1.0000000000
 p   1 1.00
       0.7270000    1.0000000000

    4 0
 s   4 1.00
      13.0100000    0.0196850000
       1.9620000    0.1379770000
       0.4446000    0.4781480000
       0.1220000    0.5012400000
 s   4 1.00
      13.0100000    0.0000000000
       1.9620000    0.0000000000
       0.4446000    0.0000000000
       0.1220000    1.0000000000
 p   1 1.00
       0.7270000    1.0000000000

    5 0
 s   4 1.00
      13.0100000    0.0196850000
       1.9620000    0.1379770000
       0.4446000    0.4781480000
       0.1220000    0.5012400000
 s   4 1.00
      13.0100000    0.0000000000
       1.9620000    0.0000000000
       0.4446000    0.0000000000
       0.1220000    1.0000000000
 p   1 1.00
       0.7270000    1.0000000000

    6 0
 s   4 1.00
      13.0100000    0.0196850000
       1.9620000    0.1379770000
       0.4446000    0.4781480000
       0.1220000    0.5012400000
 s   4 1.00
      13.0100000    0.0000000000
       1.9620000    0.0000000000
       0.4446000    0.0000000000
       0.1220000    1.0000000000
 p   1 1.00
       0.7270000    1.0000000000

[SCFCONV]
scf-first  1  THROUGH   9
     -151.7003600027
     -152.0339999256
     -152.0519054982
     -152.0534055501
     -152.0534696079
     -152.0534819271
     -152.0534829923
     -152.0534830060
     -152.0534830063
[TITLE]
*** Dalton interface to Molden, wave function type : LUCITA        13Apr24   13:
[Atoms] AU
O1         1     8         0.0000000000         0.0000000000         0.124144424
O2         2     8        94.0000000000         0.0000000000         0.124144424
H1         3     1         0.0000000000         1.4315300000        -0.985265576
H2         4     1         0.0000000000        -1.4315300000        -0.985265576
H3         5     1        94.0000000000         1.4315300000        -0.985265576
H4         6     1        94.0000000000        -1.4315300000        -0.985265576
[5D7F]
[9G]
[MO]
Sym= A
Ene=  -20.5507
Spin= Alpha
Occup=  2.0000
    1       -1.000398
    2       -0.002296
    3        0.001402
    6        0.002565
    9       -0.001668
   10       -0.000011
   13        0.000136
   15        0.000001
   29        0.000400
   30       -0.000622
   32       -0.000568
   33        0.000480
   34        0.000400
   35       -0.000622
   37        0.000568
   38        0.000480
Sym= A
Ene=  -20.5507
Spin= Alpha
Occup=  2.0000
    1        0.000001
   15        1.000398
   16        0.002296
   17       -0.001402
   20       -0.002565
   23        0.001668
   24        0.000011
   27       -0.000136
   39       -0.000400
   40        0.000622
   42        0.000568
   43       -0.000480
   44       -0.000400
   45        0.000622
   47       -0.000568
   48       -0.000480
Sym= A
Ene=   -1.3362
Spin= Alpha
Occup=  2.0000
    1        0.008135
    2       -0.867688
    3        0.121812
    6        0.114239
    9       -0.065507
   10       -0.001244
   13        0.002989
   15       -0.000670
   16        0.071468
   17       -0.010033
   20       -0.009409
   23        0.005395
   24        0.000102
   27       -0.000246
   29       -0.327612
   30        0.154136
   32        0.037120
   33       -0.020407
   34       -0.327612
   35        0.154136
   37       -0.037120
   38       -0.020407
   39        0.026984
   40       -0.012695
   42       -0.003057
   43        0.001681
   44        0.026984
   45       -0.012695
   47        0.003057
   48        0.001681
Sym= A
Ene=   -1.3362
Spin= Alpha
Occup=  2.0000
    1       -0.000670
    2        0.071468
    3       -0.010033
    6       -0.009409
    9        0.005395
   10        0.000102
   13       -0.000246
   15       -0.008135
   16        0.867688
   17       -0.121812
   20       -0.114239
   23        0.065507
   24        0.001244
   27       -0.002989
   29        0.026984
   30       -0.012695
   32       -0.003057
   33        0.001681
   34        0.026984
   35       -0.012695
   37        0.003057
   38        0.001681
   39        0.327612
   40       -0.154136
   42       -0.037120
   43        0.020407
   44        0.327612
   45       -0.154136
   47        0.037120
   48        0.020407
Sym= A
Ene=   -0.6986
Spin= Alpha
Occup=  2.0000
    5        0.708349
    8       -0.105593
   12       -0.026573
   19       -0.087618
   22        0.013061
   26        0.003287
   29        0.553485
   30       -0.188074
   32       -0.023126
   33        0.032415
   34       -0.553485
   35        0.188074
   37       -0.023126
   38       -0.032415
   39       -0.068462
   40        0.023263
   42        0.002861
   43       -0.004010
   44        0.068462
   45       -0.023263
   47        0.002861
   48        0.004010
Sym= A
Ene=   -0.6986
Spin= Alpha
Occup=  2.0000
    5       -0.087618
    8        0.013061
   12        0.003287
   19       -0.708349
   22        0.105593
   26        0.026573
   29       -0.068462
   30        0.023263
   32        0.002861
   33       -0.004010
   34        0.068462
   35       -0.023263
   37        0.002861
   38        0.004010
   39       -0.553485
   40        0.188074
   42        0.023126
   43       -0.032415
   44        0.553485
   45       -0.188074
   47        0.023126
   48        0.032415
Sym= A
Ene=   -0.5665
Spin= Alpha
Occup=  2.0000
    1        0.002168
    2       -0.295426
    3       -0.180263
    4       -0.000001
    6       -0.794222
    9        0.000620
   10        0.017861
   13       -0.004590
   15       -0.000060
   16        0.008237
   17        0.005026
   20        0.022143
   23       -0.000017
   24       -0.000498
   27        0.000128
   29        0.351272
   30       -0.135537
   32       -0.031754
   33       -0.007482
   34        0.351272
   35       -0.135537
   37        0.031754
   38       -0.007482
   39       -0.009794
   40        0.003779
   42        0.000885
   43        0.000209
   44       -0.009794
   45        0.003779
   47       -0.000885
   48        0.000209
Sym= A
Ene=   -0.5665
Spin= Alpha
Occup=  2.0000
    1       -0.000060
    2        0.008237
    3        0.005026
    6        0.022143
    9       -0.000017
   10       -0.000498
   13        0.000128
   15       -0.002168
   16        0.295426
   17        0.180263
   18        0.000001
   20        0.794222
   23       -0.000620
   24       -0.017861
   27        0.004590
   29       -0.009794
   30        0.003779
   32        0.000885
   33        0.000209
   34       -0.009794
   35        0.003779
   37       -0.000885
   38        0.000209
   39       -0.351272
   40        0.135537
   42        0.031754
   43        0.007482
   44       -0.351272
   45        0.135537
   47       -0.031754
   48        0.007482
Sym= A
Ene=   -0.4931
Spin= Alpha
Occup=  2.0000
    4        0.913097
    7        0.071618
   11       -0.018065
   18       -0.110095
   21       -0.008635
   25        0.002178
   31        0.030816
   36        0.030816
   41       -0.003716
   46       -0.003716
Sym= A
Ene=   -0.4931
Spin= Alpha
Occup=  2.0000
    4        0.110095
    7        0.008635
   11       -0.002178
   18        0.913097
   20       -0.000001
   21        0.071618
   25       -0.018065
   31        0.003716
   36        0.003716
   41        0.030816
   46        0.030816
Sym= A
Ene=    0.1854
Spin= Alpha
Occup=  0.0000
    1        0.051960
    2       -0.142495
    3       -0.918611
    6        0.277917
    9        0.209183
   10       -0.007537
   13        0.009914
   15       -0.002522
   16        0.006918
   17        0.044595
   20       -0.013492
   23       -0.010155
   24        0.000366
   27       -0.000481
   29        0.100474
   30        0.777451
   32       -0.017437
   33        0.016266
   34        0.100474
   35        0.777451
   37        0.017437
   38        0.016266
   39       -0.004878
   40       -0.037742
   42        0.000846
   43       -0.000790
   44       -0.004878
   45       -0.037742
   47       -0.000846
   48       -0.000790
Sym= A
Ene=    0.1854
Spin= Alpha
Occup=  0.0000
    1        0.002522
    2       -0.006918
    3       -0.044595
    6        0.013492
    9        0.010155
   10       -0.000366
   13        0.000481
   15        0.051960
   16       -0.142495
   17       -0.918611
   20        0.277917
   23        0.209183
   24       -0.007537
   27        0.009914
   29        0.004878
   30        0.037742
   32       -0.000846
   33        0.000790
   34        0.004878
   35        0.037742
   37        0.000846
   38        0.000790
   39        0.100474
   40        0.777451
   42       -0.017436
   43        0.016266
   44        0.100474
   45        0.777451
   47        0.017436
   48        0.016266
Sym= A
Ene=    0.2561
Spin= Alpha
Occup=  0.0000
    5       -0.413071
    8       -0.480616
   12        0.021175
   19        0.005013
   22        0.005833
   26       -0.000257
   29        0.044651
   30        1.420137
   32       -0.020751
   33        0.017058
   34       -0.044651
   35       -1.420137
   37       -0.020751
   38       -0.017058
   39       -0.000542
   40       -0.017235
   42        0.000252
   43       -0.000207
   44        0.000542
   45        0.017235
   47        0.000252
   48        0.000207
Sym= A
Ene=    0.2561
Spin= Alpha
Occup=  0.0000
    5        0.005013
    8        0.005833
   12       -0.000257
   19        0.413071
   22        0.480617
   26       -0.021175
   29       -0.000542
   30       -0.017235
   32        0.000252
   33       -0.000207
   34        0.000542
   35        0.017235
   37        0.000252
   38        0.000207
   39       -0.044651
   40       -1.420137
   42        0.020751
   43       -0.017058
   44        0.044651
   45        1.420137
   47        0.020751
   48        0.017058
Sym= A
Ene=    0.7883
Spin= Alpha
Occup=  0.0000
    5        0.390594
    8        0.279363
   12        0.111619
   19       -0.005007
   22       -0.003581
   26       -0.001431
   29       -1.606686
   30        1.493305
   32       -0.073695
   33        0.152439
   34        1.606686
   35       -1.493305
   37       -0.073695
   38       -0.152439
   39        0.020595
   40       -0.019141
   42        0.000945
   43       -0.001954
   44       -0.020595
   45        0.019141
   47        0.000945
   48        0.001954
Sym= A
Ene=    0.7883
Spin= Alpha
Occup=  0.0000
    5        0.005007
    8        0.003581
   12        0.001431
   19        0.390594
   22        0.279363
   26        0.111619
   29       -0.020595
   30        0.019141
   32       -0.000945
   33        0.001954
   34        0.020595
   35       -0.019141
   37       -0.000945
   38       -0.001954
   39       -1.606686
   40        1.493305
   42       -0.073695
   43        0.152439
   44        1.606686
   45       -1.493305
   47       -0.073695
   48       -0.152439
Sym= A
Ene=    0.8535
Spin= Alpha
Occup=  0.0000
    1        0.065437
    2        0.503532
    3       -0.608832
    6       -0.480189
    9        0.230669
   10       -0.001028
   13        0.106856
   15       -0.001251
   16       -0.009626
   17        0.011639
   20        0.009179
   23       -0.004409
   24        0.000020
   27       -0.002043
   29       -1.340899
   30        1.220517
   32       -0.295245
   33        0.059378
   34       -1.340899
   35        1.220517
   37        0.295245
   38        0.059378
   39        0.025633
   40       -0.023331
   42        0.005644
   43       -0.001135
   44        0.025633
   45       -0.023331
   47       -0.005644
   48       -0.001135
Sym= A
Ene=    0.8535
Spin= Alpha
Occup=  0.0000
    1        0.001251
    2        0.009626
    3       -0.011639
    6       -0.009179
    9        0.004409
   10       -0.000020
   13        0.002043
   15        0.065437
   16        0.503532
   17       -0.608832
   20       -0.480189
   23        0.230669
   24       -0.001028
   27        0.106856
   29       -0.025633
   30        0.023331
   32       -0.005644
   33        0.001135
   34       -0.025633
   35        0.023331
   37        0.005644
   38        0.001135
   39       -1.340899
   40        1.220517
   42       -0.295245
   43        0.059378
   44       -1.340899
   45        1.220517
   47        0.295245
   48        0.059378
Sym= A
Ene=    1.1636
Spin= Alpha
Occup=  0.0000
    1        0.003300
    2        0.226220
    3        0.616435
    4        0.000002
    6        1.099265
    7       -0.000002
    9       -1.784032
   10        0.012909
   13        0.006842
   16       -0.000023
   17       -0.000064
   18        0.000002
   20       -0.000114
   21       -0.000002
   23        0.000186
   24       -0.000001
   27       -0.000001
   29       -0.928411
   30        0.352583
   32        0.083736
   33       -0.251584
   34       -0.928411
   35        0.352583
   37       -0.083736
   38       -0.251584
   39        0.000097
   40       -0.000037
   42       -0.000009
   43        0.000026
   44        0.000097
   45       -0.000037
   47        0.000009
   48        0.000026
Sym= A
Ene=    1.1636
Spin= Alpha
Occup=  0.0000
    2        0.000024
    3        0.000064
    6        0.000114
    9       -0.000186
   10        0.000001
   13        0.000001
   15        0.003300
   16        0.226220
   17        0.616435
   18        0.000001
   20        1.099265
   21       -0.000001
   23       -1.784032
   24        0.012909
   27        0.006842
   29       -0.000097
   30        0.000037
   32        0.000009
   33       -0.000026
   34       -0.000097
   35        0.000037
   37       -0.000009
   38       -0.000026
   39       -0.928411
   40        0.352583
   42        0.083736
   43       -0.251584
   44       -0.928411
   45        0.352583
   47       -0.083736
   48       -0.251584
Sym= A
Ene=    1.2004
Spin= Alpha
Occup=  0.0000
    2        0.000001
    4       -1.410173
    6        0.000002
    7        1.673735
    9       -0.000003
   11        0.003445
   18        0.000134
   21       -0.000159
   29       -0.000001
   31        0.009227
   34       -0.000001
   36        0.009227
   41       -0.000001
   46       -0.000001
Sym= A
Ene=    1.2004
Spin= Alpha
Occup=  0.0000
    3        0.000001
    4       -0.000134
    6        0.000002
    7        0.000159
    9       -0.000002
   17        0.000001
   18       -1.410173
   21        1.673735
   23       -0.000001
   25        0.003445
   29       -0.000001
   31        0.000001
   34       -0.000001
   36        0.000001
   41        0.009227
   46        0.009227
Sym= A
Ene=    1.2534
Spin= Alpha
Occup=  0.0000
    5       -1.070508
    8        2.255865
   12       -0.044318
   19        0.001842
   22       -0.003881
   26        0.000076
   29       -0.644213
   30       -0.501030
   32        0.302619
   33       -0.186506
   34        0.644213
   35        0.501030
   37        0.302619
   38        0.186506
   39        0.001108
   40        0.000862
   42       -0.000521
   43        0.000321
   44       -0.001108
   45       -0.000862
   47       -0.000521
   48       -0.000321
Sym= A
Ene=    1.2534
Spin= Alpha
Occup=  0.0000
    5       -0.001842
    8        0.003881
   12       -0.000076
   19       -1.070508
   22        2.255865
   26       -0.044318
   29       -0.001108
   30       -0.000862
   32        0.000521
   33       -0.000321
   34        0.001108
   35        0.000862
   37        0.000521
   38        0.000321
   39       -0.644213
   40       -0.501030
   42        0.302619
   43       -0.186506
   44        0.644213
   45        0.501030
   47        0.302619
   48        0.186506
Sym= A
Ene=    1.4442
Spin= Alpha
Occup=  0.0000
    1       -0.201403
    2       -1.038068
    3        1.096841
    6       -0.194092
    9        0.830732
   10        0.117476
   13        0.005042
   15        0.000309
   16        0.001593
   17       -0.001683
   20        0.000298
   23       -0.001275
   24       -0.000180
   27       -0.000008
   29        0.568926
   30       -0.493917
   32       -0.330699
   33       -0.544469
   34        0.568926
   35       -0.493917
   37        0.330699
   38       -0.544469
   39       -0.000873
   40        0.000758
   42        0.000507
   43        0.000835
   44       -0.000873
   45        0.000758
   47       -0.000507
   48        0.000835
Sym= A
Ene=    1.4442
Spin= Alpha
Occup=  0.0000
    1       -0.000309
    2       -0.001593
    3        0.001683
    6       -0.000298
    9        0.001275
   10        0.000180
   13        0.000008
   15       -0.201403
   16       -1.038068
   17        1.096840
   20       -0.194092
   23        0.830732
   24        0.117476
   27        0.005042
   29        0.000873
   30       -0.000758
   32       -0.000507
   33       -0.000835
   34        0.000873
   35       -0.000758
   37        0.000507
   38       -0.000835
   39        0.568926
   40       -0.493917
   42       -0.330699
   43       -0.544469
   44        0.568926
   45       -0.493917
   47        0.330699
   48       -0.544469
Sym= A
Ene=    1.4762
Spin= Alpha
Occup=  0.0000
   14       -0.131443
   31       -0.685559
   36        0.685559
Sym= A
Ene=    1.4762
Spin= Alpha
Occup=  0.0000
   28       -0.131443
   41       -0.685559
   46        0.685559
Sym= A
Ene=    1.6741
Spin= Alpha
Occup=  0.0000
    3        0.000001
    4       -0.026477
    7       -0.622088
    9       -0.000001
   11       -0.160852
   18        0.000008
   21        0.000189
   25        0.000049
   31        0.766799
   36        0.766799
   41       -0.000233
   46       -0.000233
Sym= A
Ene=    1.6741
Spin= Alpha
Occup=  0.0000
    3        0.000001
    4       -0.000008
    7       -0.000189
   11       -0.000049
   16       -0.000001
   17        0.000001
   18       -0.026477
   21       -0.622088
   25       -0.160852
   31        0.000233
   36        0.000233
   41        0.766799
   46        0.766799
Sym= A
Ene=    1.8674
Spin= Alpha
Occup=  0.0000
    1       -0.724627
    2       -3.133420
    3        4.825573
    6       -0.157818
    9       -0.895132
   10       -0.114112
   13        0.108232
   15        0.000462
   16        0.001998
   17       -0.003077
   20        0.000101
   23        0.000571
   24        0.000073
   27       -0.000069
   29       -1.407828
   30        0.317922
   32        0.372545
   33        0.022443
   34       -1.407828
   35        0.317922
   37       -0.372545
   38        0.022443
   39        0.000898
   40       -0.000203
   42       -0.000238
   43       -0.000014
   44        0.000898
   45       -0.000203
   47        0.000238
   48       -0.000014
Sym= A
Ene=    1.8674
Spin= Alpha
Occup=  0.0000
    1       -0.000462
    2       -0.001998
    3        0.003077
    6       -0.000101
    9       -0.000571
   10       -0.000073
   13        0.000069
   15       -0.724627
   16       -3.133420
   17        4.825573
   20       -0.157818
   23       -0.895132
   24       -0.114112
   27        0.108232
   29       -0.000898
   30        0.000203
   32        0.000238
   33        0.000014
   34       -0.000898
   35        0.000203
   37       -0.000238
   38        0.000014
   39       -1.407828
   40        0.317922
   42        0.372545
   43        0.022443
   44       -1.407828
   45        0.317922
   47       -0.372545
   48        0.022443
Sym= A
Ene=    1.9340
Spin= Alpha
Occup=  0.0000
    5       -0.015083
    8        0.907367
   12        0.029324
   19        0.000002
   22       -0.000141
   26       -0.000005
   29       -0.658559
   30        0.238702
   32       -0.471080
   33       -0.693340
   34        0.658559
   35       -0.238702
   37       -0.471080
   38        0.693340
   39        0.000102
   40       -0.000037
   42        0.000073
   43        0.000108
   44       -0.000102
   45        0.000037
   47        0.000073
   48       -0.000108
Sym= A
Ene=    1.9340
Spin= Alpha
Occup=  0.0000
    5       -0.000002
    8        0.000140
   12        0.000005
   19       -0.015083
   22        0.907367
   26        0.029324
   29       -0.000102
   30        0.000037
   32       -0.000073
   33       -0.000108
   34        0.000102
   35       -0.000037
   37       -0.000073
   38        0.000108
   39       -0.658559
   40        0.238702
   42       -0.471080
   43       -0.693340
   44        0.658559
   45       -0.238702
   47       -0.471080
   48        0.693340
Sym= A
Ene=    2.4500
Spin= Alpha
Occup=  0.0000
    5        1.220690
    8       -0.410233
   12        0.137998
   19       -0.000775
   22        0.000261
   26       -0.000088
   29       -0.499540
   30       -0.079774
   32        0.724105
   33       -0.554346
   34        0.499540
   35        0.079774
   37        0.724105
   38        0.554346
   39        0.000317
   40        0.000051
   42       -0.000460
   43        0.000352
   44       -0.000317
   45       -0.000051
   47       -0.000460
   48       -0.000352
Sym= A
Ene=    2.4500
Spin= Alpha
Occup=  0.0000
    5        0.000775
    8       -0.000261
   12        0.000088
   19        1.220690
   22       -0.410233
   26        0.137998
   29       -0.000317
   30       -0.000051
   32        0.000460
   33       -0.000352
   34        0.000317
   35        0.000051
   37        0.000460
   38        0.000352
   39       -0.499540
   40       -0.079773
   42        0.724105
   43       -0.554346
   44        0.499540
   45        0.079773
   47        0.724105
   48        0.554346
Sym= A
Ene=    2.4877
Spin= Alpha
Occup=  0.0000
    1       -0.275992
    2       -1.424756
    3        0.020628
    6        0.974817
    9       -0.268495
   10        0.052914
   13       -0.216855
   15        0.000435
   16        0.002243
   17       -0.000032
   20       -0.001535
   23        0.000423
   24       -0.000083
   27        0.000341
   29        0.813122
   30       -0.248274
   32       -0.744115
   33        0.537254
   34        0.813122
   35       -0.248274
   37        0.744115
   38        0.537254
   39       -0.001280
   40        0.000391
   42        0.001172
   43       -0.000846
   44       -0.001280
   45        0.000391
   47       -0.001172
   48       -0.000846
Sym= A
Ene=    2.4877
Spin= Alpha
Occup=  0.0000
    1       -0.000435
    2       -0.002243
    3        0.000032
    6        0.001535
    9       -0.000423
   10        0.000083
   13       -0.000341
   15       -0.275992
   16       -1.424756
   17        0.020628
   20        0.974817
   23       -0.268495
   24        0.052914
   27       -0.216855
   29        0.001280
   30       -0.000391
   32       -0.001172
   33        0.000846
   34        0.001280
   35       -0.000391
   37        0.001172
   38        0.000846
   39        0.813122
   40       -0.248274
   42       -0.744115
   43        0.537254
   44        0.813122
   45       -0.248274
   47        0.744115
   48        0.537254
Sym= A
Ene=    3.2850
Spin= Alpha
Occup=  0.0000
    4        0.017436
    7       -0.319079
   11        1.042568
   18       -0.000001
   21        0.000015
   25       -0.000048
   31        0.397735
   36        0.397735
   41       -0.000018
   46       -0.000018
Sym= A
Ene=    3.2850
Spin= Alpha
Occup=  0.0000
    4        0.000001
    7       -0.000015
   11        0.000048
   18        0.017436
   21       -0.319079
   25        1.042568
   31        0.000018
   36        0.000018
   41        0.397735
   46        0.397735
Sym= A
Ene=    3.3376
Spin= Alpha
Occup=  0.0000
   14        1.065786
   31       -0.370758
   36        0.370758
Sym= A
Ene=    3.3376
Spin= Alpha
Occup=  0.0000
   28        1.065786
   41       -0.370758
   46        0.370758
Sym= A
Ene=    3.5093
Spin= Alpha
Occup=  0.0000
    1       -0.084040
    2       -0.302844
    3        0.728164
    6       -0.026431
    9       -0.523950
   10        1.083870
   13        0.177673
   15        0.000001
   16        0.000004
   17       -0.000010
   23        0.000008
   24       -0.000016
   27       -0.000003
   29       -0.518149
   30        0.222205
   32        0.351537
   33        0.315069
   34       -0.518149
   35        0.222205
   37       -0.351537
   38        0.315069
   39        0.000007
   40       -0.000003
   42       -0.000005
   43       -0.000005
   44        0.000007
   45       -0.000003
   47        0.000005
   48       -0.000005
Sym= A
Ene=    3.5093
Spin= Alpha
Occup=  0.0000
    1       -0.000001
    2       -0.000004
    3        0.000010
    9       -0.000008
   10        0.000016
   13        0.000003
   15       -0.084040
   16       -0.302844
   17        0.728164
   20       -0.026431
   23       -0.523950
   24        1.083870
   27        0.177673
   29       -0.000007
   30        0.000003
   32        0.000005
   33        0.000005
   34       -0.000007
   35        0.000003
   37       -0.000005
   38        0.000005
   39       -0.518149
   40        0.222205
   42        0.351537
   43        0.315069
   44       -0.518149
   45        0.222205
   47       -0.351537
   48        0.315069
Sym= A
Ene=    3.8642
Spin= Alpha
Occup=  0.0000
    1       -0.144385
    2       -0.352339
    3        2.467813
    6       -0.587668
    9       -0.651583
   10        0.137474
   13       -1.159043
   15        0.000041
   16        0.000101
   17       -0.000707
   20        0.000168
   23        0.000187
   24       -0.000039
   27        0.000332
   29       -2.102673
   30        0.862208
   32        0.620328
   33       -0.492462
   34       -2.102673
   35        0.862208
   37       -0.620328
   38       -0.492462
   39        0.000602
   40       -0.000247
   42       -0.000178
   43        0.000141
   44        0.000602
   45       -0.000247
   47        0.000178
   48        0.000141
Sym= A
Ene=    3.8642
Spin= Alpha
Occup=  0.0000
    1       -0.000041
    2       -0.000101
    3        0.000707
    6       -0.000168
    9       -0.000187
   10        0.000039
   13       -0.000332
   15       -0.144385
   16       -0.352339
   17        2.467813
   20       -0.587668
   23       -0.651583
   24        0.137474
   27       -1.159043
   29       -0.000602
   30        0.000247
   32        0.000178
   33       -0.000141
   34       -0.000602
   35        0.000247
   37       -0.000178
   38       -0.000141
   39       -2.102672
   40        0.862208
   42        0.620328
   43       -0.492462
   44       -2.102672
   45        0.862208
   47       -0.620328
   48       -0.492462
Sym= A
Ene=    4.1466
Spin= Alpha
Occup=  0.0000
    5       -0.680095
    8       -0.829576
   12        1.325183
   19        0.000077
   22        0.000093
   26       -0.000149
   29        1.843520
   30       -0.635777
   32       -0.605080
   33        0.493803
   34       -1.843520
   35        0.635777
   37       -0.605080
   38       -0.493803
   39       -0.000207
   40        0.000072
   42        0.000068
   43       -0.000056
   44        0.000207
   45       -0.000072
   47        0.000068
   48        0.000056
Sym= A
Ene=    4.1466
Spin= Alpha
Occup=  0.0000
    5       -0.000077
    8       -0.000093
   12        0.000149
   19       -0.680095
   22       -0.829576
   26        1.325183
   29        0.000207
   30       -0.000072
   32       -0.000068
   33        0.000056