[Molden Format]
[GTO]
    1 0
 s  10 1.00
    3047.5249000    0.0018347000
     457.3695100    0.0140373000
     103.9486900    0.0688426000
      29.2101550    0.2321844000
       9.2866630    0.4679413000
       3.1639270    0.3623120000
       7.8682724    0.0000000000
       1.8812885    0.0000000000
       0.5442493    0.0000000000
       0.1687144    0.0000000000
 s  10 1.00
    3047.5249000    0.0000000000
     457.3695100    0.0000000000
     103.9486900    0.0000000000
      29.2101550    0.0000000000
       9.2866630    0.0000000000
       3.1639270    0.0000000000
       7.8682724   -0.1193324000
       1.8812885   -0.1608542000
       0.5442493    1.1434564000
       0.1687144    0.0000000000
 s  10 1.00
    3047.5249000    0.0000000000
     457.3695100    0.0000000000
     103.9486900    0.0000000000
      29.2101550    0.0000000000
       9.2866630    0.0000000000
       3.1639270    0.0000000000
       7.8682724    0.0000000000
       1.8812885    0.0000000000
       0.5442493    0.0000000000
       0.1687144    1.0000000000
 p   4 1.00
       7.8682724    0.0689991000
       1.8812885    0.3164240000
       0.5442493    0.7443083000
       0.1687144    0.0000000000
 p   4 1.00
       7.8682724    0.0000000000
       1.8812885    0.0000000000
       0.5442493    0.0000000000
       0.1687144    1.0000000000
 d   1 1.00
       0.8000000    1.0000000000

    2 0
 s  10 1.00
    3047.5249000    0.0018347000
     457.3695100    0.0140373000
     103.9486900    0.0688426000
      29.2101550    0.2321844000
       9.2866630    0.4679413000
       3.1639270    0.3623120000
       7.8682724    0.0000000000
       1.8812885    0.0000000000
       0.5442493    0.0000000000
       0.1687144    0.0000000000
 s  10 1.00
    3047.5249000    0.0000000000
     457.3695100    0.0000000000
     103.9486900    0.0000000000
      29.2101550    0.0000000000
       9.2866630    0.0000000000
       3.1639270    0.0000000000
       7.8682724   -0.1193324000
       1.8812885   -0.1608542000
       0.5442493    1.1434564000
       0.1687144    0.0000000000
 s  10 1.00
    3047.5249000    0.0000000000
     457.3695100    0.0000000000
     103.9486900    0.0000000000
      29.2101550    0.0000000000
       9.2866630    0.0000000000
       3.1639270    0.0000000000
       7.8682724    0.0000000000
       1.8812885    0.0000000000
       0.5442493    0.0000000000
       0.1687144    1.0000000000
 p   4 1.00
       7.8682724    0.0689991000
       1.8812885    0.3164240000
       0.5442493    0.7443083000
       0.1687144    0.0000000000
 p   4 1.00
       7.8682724    0.0000000000
       1.8812885    0.0000000000
       0.5442493    0.0000000000
       0.1687144    1.0000000000
 d   1 1.00
       0.8000000    1.0000000000

    3 0
 s   4 1.00
      18.7311370    0.0334946000
       2.8253937    0.2347269500
       0.6401217    0.8137573300
       0.1612778    0.0000000000
 s   4 1.00
      18.7311370    0.0000000000
       2.8253937    0.0000000000
       0.6401217    0.0000000000
       0.1612778    1.0000000000
 p   1 1.00
       1.1000000    1.0000000000

    4 0
 s   4 1.00
      18.7311370    0.0334946000
       2.8253937    0.2347269500
       0.6401217    0.8137573300
       0.1612778    0.0000000000
 s   4 1.00
      18.7311370    0.0000000000
       2.8253937    0.0000000000
       0.6401217    0.0000000000
       0.1612778    1.0000000000
 p   1 1.00
       1.1000000    1.0000000000

    5 0
 s   4 1.00
      18.7311370    0.0334946000
       2.8253937    0.2347269500
       0.6401217    0.8137573300
       0.1612778    0.0000000000
 s   4 1.00
      18.7311370    0.0000000000
       2.8253937    0.0000000000
       0.6401217    0.0000000000
       0.1612778    1.0000000000
 p   1 1.00
       1.1000000    1.0000000000

    6 0
 s   4 1.00
      18.7311370    0.0334946000
       2.8253937    0.2347269500
       0.6401217    0.8137573300
       0.1612778    0.0000000000
 s   4 1.00
      18.7311370    0.0000000000
       2.8253937    0.0000000000
       0.6401217    0.0000000000
       0.1612778    1.0000000000
 p   1 1.00
       1.1000000    1.0000000000

[SCFCONV]
scf-first  1  THROUGH   8
      -77.7036130362
      -78.0191528482
      -78.0374437771
      -78.0386179849
      -78.0386646919
      -78.0386658186
      -78.0386658365
      -78.0386658367
[GEOMETRIES] XYZ
    6

C              0.0000000000         0.6610154654         0.0000000000
C              0.0000000000        -0.6610154654         0.0000000000
H              0.9114933156         1.2290296298         0.0000000000
H             -0.9114933156         1.2290296298         0.0000000000
H              0.9114933156        -1.2290296298         0.0000000000
H             -0.9114933156        -1.2290296298         0.0000000000
    6

C              0.0000000000         0.6610154654         0.0000000000
C              0.0000000000        -0.6610154654         0.0000000000
H              0.9114933156         1.2290296298         0.0000000000
H             -0.9114933156         1.2290296298         0.0000000000
H              0.9114933156        -1.2290296298         0.0000000000
H             -0.9114933156        -1.2290296298         0.0000000000
    6

C              0.0000000000         0.6584657251         0.0000000000
C             -0.0000000000        -0.6584657251         0.0000000000
H              0.9145614660         1.2252665804         0.0000000000
H             -0.9145614660         1.2252665804         0.0000000000
H              0.9145614660        -1.2252665804         0.0000000000
H             -0.9145614660        -1.2252665804         0.0000000000
    6

C             -0.0000000000         0.6582984482         0.0000000000
C              0.0000000000        -0.6582984482         0.0000000000
H              0.9152656935         1.2247933260         0.0000000000
H             -0.9152656935         1.2247933260         0.0000000000
H              0.9152656935        -1.2247933260         0.0000000000
H             -0.9152656935        -1.2247933260         0.0000000000
    6

C             -0.0000000000         0.6583349201         0.0000000000
C              0.0000000000        -0.6583349201         0.0000000000
H              0.9153839635         1.2247154251         0.0000000000
H             -0.9153839636         1.2247154251         0.0000000000
H              0.9153839636        -1.2247154251         0.0000000000
H             -0.9153839635        -1.2247154251         0.0000000000
    6

C             -0.0000000000         0.6583509314         0.0000000000
C              0.0000000000        -0.6583509314         0.0000000000
H              0.9154109540         1.2246728727         0.0000000000
H             -0.9154109540         1.2246728727         0.0000000000
H              0.9154109540        -1.2246728727         0.0000000000
H             -0.9154109540        -1.2246728727         0.0000000000
[GEOCONV]
energy
      -78.0386658367
      -78.0386658367
      -78.0387316295
      -78.0387328529
      -78.0387328966
      -78.0387329015
[TITLE]
*** Dalton interface to Molden, wave function type : HF            26Mar24   11:
[Atoms] AU
C          1     6        -0.0000000001         1.2441029545         0.000000000
C          2     6         0.0000000001        -1.2441029545         0.000000000
H          3     1         1.7298759948         2.3142963221         0.000000000
H          4     1        -1.7298759949         2.3142963222         0.000000000
H          5     1         1.7298759949        -2.3142963222         0.000000000
H          6     1        -1.7298759948        -2.3142963221         0.000000000
[5D7F]
[9G]
[MO]
Sym= A
Ene=  -11.2241
Spin= Alpha
Occup=  2.0000
    1        0.704131
    2        0.016746
    3       -0.006377
    5        0.000414
    8       -0.000736
   10       -0.000386
   13       -0.000030
   15        0.704131
   16        0.016746
   17       -0.006377
   19       -0.000414
   22        0.000736
   24       -0.000386
   27       -0.000030
   29       -0.000421
   30        0.001735
   31        0.000308
   32        0.000095
   34       -0.000421
   35        0.001735
   36       -0.000308
   37        0.000095
   39       -0.000421
   40        0.001735
   41        0.000308
   42       -0.000095
   44       -0.000421
   45        0.001735
   46       -0.000308
   47       -0.000095
Sym= A
Ene=  -11.2223
Spin= Alpha
Occup=  2.0000
    1       -0.704530
    2       -0.018144
    3        0.012787
    5        0.000280
    8       -0.002147
   10        0.000832
   13        0.000225
   15        0.704530
   16        0.018144
   17       -0.012787
   19        0.000280
   22       -0.002147
   24       -0.000832
   27       -0.000225
   29        0.000336
   30       -0.001568
   31       -0.000418
   32       -0.000220
   34        0.000336
   35       -0.001568
   36        0.000418
   37       -0.000220
   39       -0.000336
   40        0.001568
   41        0.000418
   42       -0.000220
   44       -0.000336
   45        0.001568
   46       -0.000418
   47       -0.000220
Sym= A
Ene=   -1.0332
Spin= Alpha
Occup=  2.0000
    1        0.158179
    2       -0.298382
    3       -0.221043
    5        0.112084
    8        0.009267
   10        0.011850
   13        0.010847
   15        0.158179
   16       -0.298382
   17       -0.221043
   19       -0.112084
   22       -0.009267
   24        0.011850
   27        0.010847
   29       -0.085404
   30       -0.020833
   31        0.007352
   32        0.005777
   34       -0.085404
   35       -0.020833
   36       -0.007352
   37        0.005777
   39       -0.085404
   40       -0.020833
   41        0.007352
   42       -0.005777
   44       -0.085404
   45       -0.020833
   46       -0.007352
   47       -0.005777
Sym= A
Ene=   -0.7887
Spin= Alpha
Occup=  2.0000
    1        0.119840
    2       -0.233528
    3       -0.227293
    5       -0.164579
    8       -0.057858
   10        0.010036
   13       -0.010297
   15       -0.119840
   16        0.233528
   17        0.227293
   19       -0.164579
   22       -0.057858
   24       -0.010036
   27        0.010297
   29       -0.149754
   30       -0.076055
   31        0.010311
   32        0.004618
   34       -0.149754
   35       -0.076055
   36       -0.010311
   37        0.004618
   39        0.149754
   40        0.076055
   41       -0.010311
   42        0.004618
   44        0.149754
   45        0.076055
   46        0.010311
   47        0.004618
Sym= A
Ene=   -0.6398
Spin= Alpha
Occup=  2.0000
    4       -0.316588
    7       -0.120618
   14       -0.007327
   18       -0.316588
   21       -0.120618
   28        0.007327
   29       -0.159280
   30       -0.115889
   31        0.006306
   32        0.006551
   34        0.159280
   35        0.115889
   36        0.006306
   37       -0.006551
   39       -0.159280
   40       -0.115889
   41        0.006306
   42       -0.006551
   44        0.159280
   45        0.115889
   46        0.006306
   47        0.006551
Sym= A
Ene=   -0.5851
Spin= Alpha
Occup=  2.0000
    1       -0.011308
    2        0.023259
    3       -0.010369
    5       -0.405961
    8       -0.147189
   10        0.003907
   13       -0.021199
   15       -0.011308
   16        0.023259
   17       -0.010369
   19        0.405961
   22        0.147189
   24        0.003907
   27       -0.021199
   29       -0.126511
   30       -0.105107
   31        0.007171
   32       -0.001853
   34       -0.126511
   35       -0.105107
   36       -0.007171
   37       -0.001853
   39       -0.126511
   40       -0.105107
   41        0.007171
   42        0.001853
   44       -0.126511
   45       -0.105107
   46       -0.007171
   47        0.001853
Sym= A
Ene=   -0.5003
Spin= Alpha
Occup=  2.0000
    4       -0.300052
    7       -0.181234
   14       -0.031715
   18        0.300052
   21        0.181234
   28       -0.031715
   29       -0.191624
   30       -0.167132
   31        0.005640
   32        0.005089
   34        0.191624
   35        0.167132
   36        0.005640
   37       -0.005089
   39        0.191624
   40        0.167132
   41       -0.005640
   42        0.005089
   44       -0.191624
   45       -0.167132
   46       -0.005640
   47       -0.005089
Sym= A
Ene=   -0.3744
Spin= Alpha
Occup=  2.0000
    6       -0.374604
    9       -0.301247
   12        0.026672
   20       -0.374604
   23       -0.301247
   26       -0.026672
   33       -0.008415
   38       -0.008415
   43       -0.008415
   48       -0.008415
Sym= A
Ene=    0.1828
Spin= Alpha
Occup=  0.0000
    6        0.339863
    9        0.736398
   12        0.022052
   20       -0.339863
   23       -0.736398
   26        0.022052
   33        0.014036
   38        0.014036
   43       -0.014036
   48       -0.014036
Sym= A
Ene=    0.2664
Spin= Alpha
Occup=  0.0000
    1       -0.076853
    2        0.076238
    3        1.498838
    5        0.145032
    8        0.651190
   10       -0.002356
   13       -0.006112
   15       -0.076853
   16        0.076238
   17        1.498838
   19       -0.145032
   22       -0.651190
   24       -0.002356
   27       -0.006112
   29       -0.012981
   30       -1.041502
   31        0.000417
   32        0.006906
   34       -0.012981
   35       -1.041502
   36       -0.000417
   37        0.006906
   39       -0.012981
   40       -1.041502
   41        0.000417
   42       -0.006906
   44       -0.012981
   45       -1.041502
   46       -0.000417
   47       -0.006906
Sym= A
Ene=    0.2932
Spin= Alpha
Occup=  0.0000
    4        0.252611
    7        0.803940
   14       -0.021778
   18        0.252611
   21        0.803940
   28        0.021778
   29       -0.040366
   30       -1.100525
   31        0.003176
   32       -0.003335
   34        0.040366
   35        1.100525
   36        0.003176
   37        0.003335
   39       -0.040366
   40       -1.100525
   41        0.003176
   42        0.003335
   44        0.040366
   45        1.100525
   46        0.003176
   47       -0.003335
Sym= A
Ene=    0.3112
Spin= Alpha
Occup=  0.0000
    1        0.106704
    2       -0.094603
    3       -1.955128
    5       -0.100485
    8       -0.160580
   10        0.008089
   13       -0.002706
   15       -0.106704
   16        0.094603
   17        1.955128
   19       -0.100485
   22       -0.160580
   24       -0.008089
   27        0.002706
   29        0.014865
   30        1.086536
   31       -0.002083
   32       -0.000732
   34        0.014865
   35        1.086536
   36        0.002083
   37       -0.000732
   39       -0.014865
   40       -1.086536
   41        0.002083
   42       -0.000732
   44       -0.014865
   45       -1.086536
   46       -0.002083
   47       -0.000732
Sym= A
Ene=    0.3921
Spin= Alpha
Occup=  0.0000
    4       -0.247958
    7       -1.950817
   14       -0.024748
   18        0.247958
   21        1.950817
   28       -0.024748
   29       -0.039198
   30        1.666719
   31       -0.006844
   32       -0.008712
   34        0.039198
   35       -1.666719
   36       -0.006844
   37        0.008712
   39        0.039198
   40       -1.666719
   41        0.006844
   42       -0.008712
   44       -0.039198
   45        1.666719
   46        0.006844
   47        0.008712
Sym= A
Ene=    0.4957
Spin= Alpha
Occup=  0.0000
    1        0.067009
    2       -0.006755
    3       -3.198841
    5        0.126613
    8        3.026268
   10        0.016648
   13       -0.011695
   15       -0.067009
   16        0.006755
   17        3.198841
   19        0.126613
   22        3.026268
   24       -0.016648
   27        0.011695
   29       -0.080944
   30       -0.583143
   31       -0.005461
   32        0.006466
   34       -0.080944
   35       -0.583143
   36        0.005461
   37        0.006466
   39        0.080944
   40        0.583143
   41        0.005461
   42        0.006466
   44        0.080944
   45        0.583143
   46       -0.005461
   47        0.006466
Sym= A
Ene=    0.6575
Spin= Alpha
Occup=  0.0000
    1       -0.017572
    2       -0.230831
    3       -0.230858
    5        0.539006
    8       -1.027298
   10        0.021255
   13        0.053655
   15       -0.017572
   16       -0.230831
   17       -0.230858
   19       -0.539006
   22        1.027298
   24        0.021255
   27        0.053655
   29        0.097765
   30        0.072541
   31       -0.005306
   32       -0.029155
   34        0.097765
   35        0.072541
   36        0.005306
   37       -0.029155
   39        0.097765
   40        0.072541
   41       -0.005306
   42        0.029155
   44        0.097765
   45        0.072541
   46        0.005306
   47        0.029155
Sym= A
Ene=    0.7641
Spin= Alpha
Occup=  0.0000
    4       -0.394442
    7        0.770385
   14       -0.083048
   18       -0.394442
   21        0.770385
   28        0.083048
   29       -0.385760
   30       -0.074568
   31        0.023926
   32       -0.020272
   34        0.385760
   35        0.074568
   36        0.023926
   37        0.020272
   39       -0.385760
   40       -0.074568
   41        0.023926
   42        0.020272
   44        0.385760
   45        0.074568
   46        0.023926
   47       -0.020272
Sym= A
Ene=    0.7725
Spin= Alpha
Occup=  0.0000
    6        0.735187
    9       -0.641141
   12       -0.069936
   20        0.735187
   23       -0.641141
   26        0.069936
   33        0.006089
   38        0.006089
   43        0.006089
   48        0.006089
Sym= A
Ene=    0.8629
Spin= Alpha
Occup=  0.0000
    1        0.023824
    2        0.877913
    3       -1.426155
    5       -0.027855
    8       -0.331743
   10       -0.119331
   13        0.034393
   15        0.023824
   16        0.877913
   17       -1.426155
   19        0.027855
   22        0.331743
   24       -0.119331
   27        0.034393
   29        0.398037
   30        0.211858
   31        0.012288
   32       -0.001060
   34        0.398037
   35        0.211858
   36       -0.012288
   37       -0.001060
   39        0.398037
   40        0.211858
   41        0.012288
   42        0.001060
   44        0.398037
   45        0.211858
   46       -0.012288
   47        0.001060
Sym= A
Ene=    0.8931
Spin= Alpha
Occup=  0.0000
    6        0.818818
    9       -1.093271
   12        0.034269
   20       -0.818818
   23        1.093271
   26        0.034269
   33        0.014085
   38        0.014085
   43       -0.014085
   48       -0.014085
Sym= A
Ene=    0.9700
Spin= Alpha
Occup=  0.0000
    1       -0.085497
    2       -0.124268
    3        0.973485
    5       -0.592234
    8        0.416552
   10        0.137741
   13        0.065384
   15        0.085497
   16        0.124268
   17       -0.973485
   19       -0.592234
   22        0.416552
   24       -0.137741
   27       -0.065384
   29       -0.389930
   30       -0.088426
   31        0.005211
   32       -0.019070
   34       -0.389930
   35       -0.088426
   36       -0.005211
   37       -0.019070
   39        0.389930
   40        0.088426
   41       -0.005211
   42       -0.019070
   44        0.389930
   45        0.088426
   46        0.005211
   47       -0.019070
Sym= A
Ene=    1.0820
Spin= Alpha
Occup=  0.0000
    4       -0.616354
    7        1.129737
   14        0.224675
   18       -0.616354
   21        1.129737
   28       -0.224675
   29        0.363106
   30       -1.112834
   31        0.067596
   32        0.044611
   34       -0.363106
   35        1.112834
   36        0.067596
   37       -0.044611
   39        0.363106
   40       -1.112834
   41        0.067596
   42       -0.044611
   44       -0.363106
   45        1.112834
   46        0.067596
   47        0.044611
Sym= A
Ene=    1.1240
Spin= Alpha
Occup=  0.0000
    4        0.843081
    7       -2.930818
   14       -0.060098
   18       -0.843081
   21        2.930818
   28       -0.060098
   29       -0.144366
   30        1.544600
   31       -0.070817
   32       -0.069009
   34        0.144366
   35       -1.544600
   36       -0.070817
   37        0.069009
   39        0.144366
   40       -1.544600
   41        0.070817
   42       -0.069009
   44       -0.144366
   45        1.544600
   46        0.070817
   47        0.069009
Sym= A
Ene=    1.1816
Spin= Alpha
Occup=  0.0000
    1       -0.024479
    2        0.984669
    3       -1.819216
    5        0.321497
    8       -0.541640
   10        0.083735
   13       -0.116351
   15       -0.024479
   16        0.984669
   17       -1.819216
   19       -0.321497
   22        0.541640
   24        0.083735
   27       -0.116351
   29       -0.403175
   30        0.913218
   31       -0.087824
   32       -0.016337
   34       -0.403175
   35        0.913218
   36        0.087824
   37       -0.016337
   39       -0.403175
   40        0.913218
   41       -0.087824
   42        0.016337
   44       -0.403175
   45        0.913218
   46        0.087824
   47        0.016337
Sym= A
Ene=    1.1891
Spin= Alpha
Occup=  0.0000
    1        0.023167
    2       -0.614573
    3        0.944723
    5       -0.549238
    8        1.179482
   10       -0.081532
   13        0.145956
   15       -0.023167
   16        0.614573
   17       -0.944723
   19       -0.549238
   22        1.179482
   24        0.081532
   27       -0.145956
   29        0.425469
   30       -1.062556
   31        0.088889
   32        0.016206
   34        0.425469
   35       -1.062556
   36       -0.088889
   37        0.016206
   39       -0.425469
   40        1.062556
   41       -0.088889
   42        0.016206
   44       -0.425469
   45        1.062556
   46        0.088889
   47        0.016206
Sym= A
Ene=    1.3465
Spin= Alpha
Occup=  0.0000
    1        0.018564
    2        1.519279
    3       -5.575582
    5       -0.337404
    8        2.147336
   10        0.004947
   13        0.167782
   15       -0.018564
   16       -1.519279
   17        5.575582
   19       -0.337404
   22        2.147336
   24       -0.004947
   27       -0.167782
   29        0.164929
   30        0.240250
   31       -0.013934
   32       -0.034904
   34        0.164929
   35        0.240250
   36        0.013934
   37       -0.034904
   39       -0.164929
   40       -0.240250
   41        0.013934
   42       -0.034904
   44       -0.164929
   45       -0.240250
   46       -0.013934
   47       -0.034904
Sym= A
Ene=    1.4528
Spin= Alpha
Occup=  0.0000
    4        0.105692
    7       -2.539224
   14        0.185400
   18       -0.105692
   21        2.539224
   28        0.185400
   29        0.639630
   30        0.677096
   31       -0.020296
   32        0.092261
   34       -0.639630
   35       -0.677096
   36       -0.020296
   37       -0.092261
   39       -0.639630
   40       -0.677096
   41        0.020296
   42        0.092261
   44        0.639630
   45        0.677096
   46        0.020296
   47       -0.092261
Sym= A
Ene=    1.6488
Spin= Alpha
Occup=  0.0000
   11        0.528618
   25        0.528618
   33        0.206395
   38       -0.206395
   43        0.206395
   48       -0.206395
Sym= A
Ene=    1.6692
Spin= Alpha
Occup=  0.0000
    6       -0.163644
    9        0.083610
   12       -0.549160
   20       -0.163644
   23        0.083610
   26        0.549160
   33       -0.150190
   38       -0.150190
   43       -0.150190
   48       -0.150190
Sym= A
Ene=    1.8119
Spin= Alpha
Occup=  0.0000
   11       -0.476564
   25        0.476564
   33       -0.279831
   38        0.279831
   43        0.279831
   48       -0.279831
Sym= A
Ene=    2.1455
Spin= Alpha
Occup=  0.0000
    1        0.015855
    2        0.074317
    3       -0.528435
    5        0.077615
    8       -0.464198
   10        0.473266
   13       -0.372285
   15        0.015855
   16        0.074317
   17       -0.528435
   19       -0.077615
   22        0.464198
   24        0.473266
   27       -0.372285
   29        0.352120
   30        0.100125
   31        0.007449
   32        0.178859
   34        0.352120
   35        0.100125
   36       -0.007449
   37        0.178859
   39        0.352120
   40        0.100125
   41        0.007449
   42       -0.178859
   44        0.352120
   45        0.100125
   46       -0.007449
   47       -0.178859
Sym= A
Ene=    2.2167
Spin= Alpha
Occup=  0.0000
    4       -0.041752
    7       -0.256456
   14       -0.494977
   18       -0.041752
   21       -0.256456
   28        0.494977
   29        0.392719
   30       -0.072147
   31        0.230683
   32       -0.022558
   34       -0.392719
   35        0.072147
   36        0.230683
   37        0.022558
   39        0.392719
   40       -0.072147
   41        0.230683
   42        0.022558
   44       -0.392719
   45        0.072147
   46        0.230683
   47       -0.022558
Sym= A
Ene=    2.2792
Spin= Alpha
Occup=  0.0000
    1        0.016702
    2        0.537992
    3       -0.284006
    5       -0.261317
    8        0.450679
   10        0.483833
   13        0.358798
   15        0.016702
   16        0.537992
   17       -0.284006
   19        0.261317
   22       -0.450679
   24        0.483833
   27        0.358798
   29        0.014426
   30        0.018083
   31        0.115871
   32       -0.176474
   34        0.014426
   35        0.018083
   36       -0.115871
   37       -0.176474
   39        0.014426
   40        0.018083
   41        0.115871
   42        0.176474
   44        0.014426
   45        0.018083
   46       -0.115871
   47        0.176474
Sym= A
Ene=    2.3521
Spin= Alpha
Occup=  0.0000
    4       -0.146855
    7        1.446978
   14        0.251768
   18        0.146855
   21       -1.446978
   28        0.251768
   29       -0.361707
   30       -0.445874
   31       -0.318245
   32        0.296506
   34        0.361707
   35        0.445874
   36       -0.318245
   37       -0.296506
   39        0.361707
   40        0.445874
   41        0.318245
   42        0.296506
   44       -0.361707
   45       -0.445874
   46        0.318245
   47       -0.296506
Sym= A
Ene=    2.3698
Spin= Alpha
Occup=  0.0000
    1       -0.008850
    2        0.351160
    3        0.244419
    5       -0.191756
    8       -0.642289
   10        0.351880
   13       -0.342112
   15        0.008850
   16       -0.351160
   17       -0.244419
   19       -0.191756
   22       -0.642289
   24       -0.351880
   27        0.342112
   29        0.270869
   30        0.057840
   31       -0.009712
   32        0.318143
   34        0.270869
   35        0.057840
   36        0.009712
   37        0.318143
   39       -0.270869
   40       -0.057840
   41        0.009712
   42        0.318143
   44       -0.270869
   45       -0.057840
   46       -0.009712
   47        0.318143
Sym= A
Ene=    2.4463
Spin= Alpha
Occup=  0.0000
    6       -0.138382
    9       -0.445991
   12        0.492107
   20        0.138382
   23        0.445991
   26        0.492107
   33        0.405600
   38        0.405600
   43       -0.405600
   48       -0.405600
Sym= A
Ene=    2.5322
Spin= Alpha
Occup=  0.0000
    4        0.096098
    7       -0.345594
   14        0.220150
   18        0.096098
   21       -0.345594
   28       -0.220150
   29       -0.079538
   30        0.286517
   31        0.226195
   32       -0.454014
   34        0.079538
   35       -0.286517
   36        0.226195
   37        0.454014
   39       -0.079538
   40        0.286517
   41        0.226195
   42        0.454014
   44        0.079538
   45       -0.286517
   46        0.226195
   47       -0.454014
Sym= A
Ene=    2.6902
Spin= Alpha
Occup=  0.0000
    6       -0.142427
    9       -0.120872
   12       -0.319431
   20       -0.142427
   23       -0.120872
   26        0.319431
   33        0.514908
   38        0.514908
   43        0.514908
   48        0.514908
Sym= A
Ene=    2.7711
Spin= Alpha
Occup=  0.0000
   11        0.495678
   25        0.495678
   33       -0.492368
   38        0.492368
   43       -0.492368
   48        0.492368
Sym= A
Ene=    2.8596
Spin= Alpha
Occup=  0.0000
    1       -0.061433
    2       -0.085741
    3        2.960227
    5       -0.670587
    8       -1.758472
   10       -0.646452
   13       -0.415921
   15        0.061433
   16        0.085741
   17       -2.960227
   19       -0.670587
   22       -1.758472
   24        0.646452
   27        0.415921
   29       -0.139229
   30        0.214473
   31       -0.275955
   32        0.187803
   34       -0.139229
   35        0.214473
   36        0.275955
   37        0.187803
   39        0.139229
   40       -0.214473
   41        0.275955
   42        0.187803
   44        0.139229
   45       -0.214473
   46       -0.275955
   47        0.187803
Sym= A
Ene=    2.9692
Spin= Alpha
Occup=  0.0000
    6       -0.072128
    9        0.045433
   12        0.790789
   20        0.072128
   23       -0.045433
   26        0.790789
   33       -0.368216
   38       -0.368216
   43        0.368216
   48        0.368216
Sym= A
Ene=    3.0303
Spin= Alpha
Occup=  0.0000
   11        0.639180
   25       -0.639180
   33       -0.461760
   38        0.461760
   43        0.461760
   48       -0.461760
Sym= A
Ene=    3.0534
Spin= Alpha
Occup=  0.0000
    4        0.452154
    7        0.659115
   14       -0.369661
   18       -0.452154
   21       -0.659115
   28       -0.369661
   29       -0.036005
   30       -0.485195
   31        0.196956
   32        0.459651
   34        0.036005
   35        0.485195
   36        0.196956
   37       -0.459651
   39        0.036005
   40        0.485195
   41       -0.196956
   42        0.459651
   44       -0.036005
   45       -0.485195
   46       -0.196956
   47       -0.459651
Sym= A
Ene=    3.1206
Spin= Alpha
Occup=  0.0000
    1        0.015463
    2        0.133701
    3       -0.449819
    5       -0.190606
    8       -0.223802
   10        0.097755
   13        0.480275
   15        0.015463
   16        0.133701
   17       -0.449819
   19        0.190606