[Molden Format]
[GTO]
    1 0
 s  14 1.00
  164200.0000000    0.0000260000
   24590.0000000    0.0002050000
    5592.0000000    0.0010760000
    1582.0000000    0.0045220000
     516.1000000    0.0161080000
     187.2000000    0.0490850000
      73.9300000    0.1248570000
      31.2200000    0.2516860000
      13.8100000    0.3624200000
       6.2560000    0.2790510000
       2.7760000    0.0635520000
       1.1380000    0.0010630000
       0.4600000    0.0011440000
       0.1829000   -0.0000400000
 s  14 1.00
  164200.0000000   -0.0000060000
   24590.0000000   -0.0000460000
    5592.0000000   -0.0002440000
    1582.0000000   -0.0010310000
     516.1000000   -0.0036880000
     187.2000000   -0.0115140000
      73.9300000   -0.0304350000
      31.2200000   -0.0681470000
      13.8100000   -0.1203680000
       6.2560000   -0.1482600000
       2.7760000    0.0099050000
       1.1380000    0.3842860000
       0.4600000    0.5368050000
       0.1829000    0.2026870000
 s  14 1.00
  164200.0000000    0.0000000000
   24590.0000000    0.0000000000
    5592.0000000    0.0000000000
    1582.0000000    0.0000000000
     516.1000000    0.0000000000
     187.2000000    0.0000000000
      73.9300000    0.0000000000
      31.2200000    0.0000000000
      13.8100000    0.0000000000
       6.2560000    0.0000000000
       2.7760000    1.0000000000
       1.1380000    0.0000000000
       0.4600000    0.0000000000
       0.1829000    0.0000000000
 s  14 1.00
  164200.0000000    0.0000000000
   24590.0000000    0.0000000000
    5592.0000000    0.0000000000
    1582.0000000    0.0000000000
     516.1000000    0.0000000000
     187.2000000    0.0000000000
      73.9300000    0.0000000000
      31.2200000    0.0000000000
      13.8100000    0.0000000000
       6.2560000    0.0000000000
       2.7760000    0.0000000000
       1.1380000    1.0000000000
       0.4600000    0.0000000000
       0.1829000    0.0000000000
 s  14 1.00
  164200.0000000    0.0000000000
   24590.0000000    0.0000000000
    5592.0000000    0.0000000000
    1582.0000000    0.0000000000
     516.1000000    0.0000000000
     187.2000000    0.0000000000
      73.9300000    0.0000000000
      31.2200000    0.0000000000
      13.8100000    0.0000000000
       6.2560000    0.0000000000
       2.7760000    0.0000000000
       1.1380000    0.0000000000
       0.4600000    1.0000000000
       0.1829000    0.0000000000
 s  14 1.00
  164200.0000000    0.0000000000
   24590.0000000    0.0000000000
    5592.0000000    0.0000000000
    1582.0000000    0.0000000000
     516.1000000    0.0000000000
     187.2000000    0.0000000000
      73.9300000    0.0000000000
      31.2200000    0.0000000000
      13.8100000    0.0000000000
       6.2560000    0.0000000000
       2.7760000    0.0000000000
       1.1380000    0.0000000000
       0.4600000    0.0000000000
       0.1829000    1.0000000000
 p   8 1.00
     195.5000000    0.0009180000
      46.1600000    0.0073880000
      14.5800000    0.0349580000
       5.2960000    0.1154310000
       2.0940000    0.2568030000
       0.8471000    0.3739380000
       0.3368000    0.3434470000
       0.1285000    0.1297060000
 p   8 1.00
     195.5000000    0.0000000000
      46.1600000    0.0000000000
      14.5800000    0.0000000000
       5.2960000    0.0000000000
       2.0940000    1.0000000000
       0.8471000    0.0000000000
       0.3368000    0.0000000000
       0.1285000    0.0000000000
 p   8 1.00
     195.5000000    0.0000000000
      46.1600000    0.0000000000
      14.5800000    0.0000000000
       5.2960000    0.0000000000
       2.0940000    0.0000000000
       0.8471000    1.0000000000
       0.3368000    0.0000000000
       0.1285000    0.0000000000
 p   8 1.00
     195.5000000    0.0000000000
      46.1600000    0.0000000000
      14.5800000    0.0000000000
       5.2960000    0.0000000000
       2.0940000    0.0000000000
       0.8471000    0.0000000000
       0.3368000    1.0000000000
       0.1285000    0.0000000000
 p   8 1.00
     195.5000000    0.0000000000
      46.1600000    0.0000000000
      14.5800000    0.0000000000
       5.2960000    0.0000000000
       2.0940000    0.0000000000
       0.8471000    0.0000000000
       0.3368000    0.0000000000
       0.1285000    1.0000000000
 d   4 1.00
       5.8790000    1.0000000000
       2.3070000    0.0000000000
       0.9050000    0.0000000000
       0.3550000    0.0000000000
 d   4 1.00
       5.8790000    0.0000000000
       2.3070000    1.0000000000
       0.9050000    0.0000000000
       0.3550000    0.0000000000
 d   4 1.00
       5.8790000    0.0000000000
       2.3070000    0.0000000000
       0.9050000    1.0000000000
       0.3550000    0.0000000000
 d   4 1.00
       5.8790000    0.0000000000
       2.3070000    0.0000000000
       0.9050000    0.0000000000
       0.3550000    1.0000000000
 f   3 1.00
       4.0160000    1.0000000000
       1.5540000    0.0000000000
       0.6010000    0.0000000000
 f   3 1.00
       4.0160000    0.0000000000
       1.5540000    1.0000000000
       0.6010000    0.0000000000
 f   3 1.00
       4.0160000    0.0000000000
       1.5540000    0.0000000000
       0.6010000    1.0000000000
 g   2 1.00
       3.3500000    1.0000000000
       1.1890000    0.0000000000
 g   2 1.00
       3.3500000    0.0000000000
       1.1890000    1.0000000000
 h   1 1.00
       2.3190000    1.0000000000

    2 0
 s   8 1.00
     402.0000000    0.0002790000
      60.2400000    0.0021650000
      13.7300000    0.0112010000
       3.9050000    0.0448780000
       1.2830000    0.1422990000
       0.4655000    0.3309790000
       0.1811000    0.4362690000
       0.0727900    0.1764400000
 s   8 1.00
     402.0000000    0.0000000000
      60.2400000    0.0000000000
      13.7300000    0.0000000000
       3.9050000    0.0000000000
       1.2830000    1.0000000000
       0.4655000    0.0000000000
       0.1811000    0.0000000000
       0.0727900    0.0000000000
 s   8 1.00
     402.0000000    0.0000000000
      60.2400000    0.0000000000
      13.7300000    0.0000000000
       3.9050000    0.0000000000
       1.2830000    0.0000000000
       0.4655000    1.0000000000
       0.1811000    0.0000000000
       0.0727900    0.0000000000
 s   8 1.00
     402.0000000    0.0000000000
      60.2400000    0.0000000000
      13.7300000    0.0000000000
       3.9050000    0.0000000000
       1.2830000    0.0000000000
       0.4655000    0.0000000000
       0.1811000    1.0000000000
       0.0727900    0.0000000000
 s   8 1.00
     402.0000000    0.0000000000
      60.2400000    0.0000000000
      13.7300000    0.0000000000
       3.9050000    0.0000000000
       1.2830000    0.0000000000
       0.4655000    0.0000000000
       0.1811000    0.0000000000
       0.0727900    1.0000000000
 p   4 1.00
       4.5160000    1.0000000000
       1.7120000    0.0000000000
       0.6490000    0.0000000000
       0.2460000    0.0000000000
 p   4 1.00
       4.5160000    0.0000000000
       1.7120000    1.0000000000
       0.6490000    0.0000000000
       0.2460000    0.0000000000
 p   4 1.00
       4.5160000    0.0000000000
       1.7120000    0.0000000000
       0.6490000    1.0000000000
       0.2460000    0.0000000000
 p   4 1.00
       4.5160000    0.0000000000
       1.7120000    0.0000000000
       0.6490000    0.0000000000
       0.2460000    1.0000000000
 d   3 1.00
       2.9500000    1.0000000000
       1.2060000    0.0000000000
       0.4930000    0.0000000000
 d   3 1.00
       2.9500000    0.0000000000
       1.2060000    1.0000000000
       0.4930000    0.0000000000
 d   3 1.00
       2.9500000    0.0000000000
       1.2060000    0.0000000000
       0.4930000    1.0000000000
 f   2 1.00
       2.5060000    1.0000000000
       0.8750000    0.0000000000
 f   2 1.00
       2.5060000    0.0000000000
       0.8750000    1.0000000000
 g   1 1.00
       2.3580000    1.0000000000

    3 0
 s   8 1.00
     402.0000000    0.0002790000
      60.2400000    0.0021650000
      13.7300000    0.0112010000
       3.9050000    0.0448780000
       1.2830000    0.1422990000
       0.4655000    0.3309790000
       0.1811000    0.4362690000
       0.0727900    0.1764400000
 s   8 1.00
     402.0000000    0.0000000000
      60.2400000    0.0000000000
      13.7300000    0.0000000000
       3.9050000    0.0000000000
       1.2830000    1.0000000000
       0.4655000    0.0000000000
       0.1811000    0.0000000000
       0.0727900    0.0000000000
 s   8 1.00
     402.0000000    0.0000000000
      60.2400000    0.0000000000
      13.7300000    0.0000000000
       3.9050000    0.0000000000
       1.2830000    0.0000000000
       0.4655000    1.0000000000
       0.1811000    0.0000000000
       0.0727900    0.0000000000
 s   8 1.00
     402.0000000    0.0000000000
      60.2400000    0.0000000000
      13.7300000    0.0000000000
       3.9050000    0.0000000000
       1.2830000    0.0000000000
       0.4655000    0.0000000000
       0.1811000    1.0000000000
       0.0727900    0.0000000000
 s   8 1.00
     402.0000000    0.0000000000
      60.2400000    0.0000000000
      13.7300000    0.0000000000
       3.9050000    0.0000000000
       1.2830000    0.0000000000
       0.4655000    0.0000000000
       0.1811000    0.0000000000
       0.0727900    1.0000000000
 p   4 1.00
       4.5160000    1.0000000000
       1.7120000    0.0000000000
       0.6490000    0.0000000000
       0.2460000    0.0000000000
 p   4 1.00
       4.5160000    0.0000000000
       1.7120000    1.0000000000
       0.6490000    0.0000000000
       0.2460000    0.0000000000
 p   4 1.00
       4.5160000    0.0000000000
       1.7120000    0.0000000000
       0.6490000    1.0000000000
       0.2460000    0.0000000000
 p   4 1.00
       4.5160000    0.0000000000
       1.7120000    0.0000000000
       0.6490000    0.0000000000
       0.2460000    1.0000000000
 d   3 1.00
       2.9500000    1.0000000000
       1.2060000    0.0000000000
       0.4930000    0.0000000000
 d   3 1.00
       2.9500000    0.0000000000
       1.2060000    1.0000000000
       0.4930000    0.0000000000
 d   3 1.00
       2.9500000    0.0000000000
       1.2060000    0.0000000000
       0.4930000    1.0000000000
 f   2 1.00
       2.5060000    1.0000000000
       0.8750000    0.0000000000
 f   2 1.00
       2.5060000    0.0000000000
       0.8750000    1.0000000000
 g   1 1.00
       2.3580000    1.0000000000

[SCFCONV]
scf-first  1  THROUGH  11
      -75.8787834496
      -76.0558972280
      -76.0656820626
      -76.0668321825
      -76.0669761063
      -76.0669980584
      -76.0669994458
      -76.0669994802
      -76.0669994807
      -76.0669994808
      -76.0669994808
[TITLE]
*** Dalton interface to Molden, wave function type : CC            13Apr24   13:
[Atoms] AU
O          1     8         0.0000000000         0.0000000000         0.124144424
H          2     1         0.0000000000         1.4315300000        -0.985265576
H          3     1         0.0000000000        -1.4315300000        -0.985265576
[5D7F]
[9G]
[MO]
Sym= A
Ene=  -20.5632
Spin= Alpha
Occup=  2.0000
    1       -1.000561
    2       -0.002824
    3       -0.000576
    4        0.002173
    5       -0.001184
    6       -0.001273
    9        0.010643
   12       -0.003197
   15       -0.003242
   18       -0.002228
   21       -0.001230
   22       -0.000026
   25        0.000163
   27        0.000057
   30       -0.000259
   32       -0.000210
   35        0.000234
   37       -0.000138
   40        0.000391
   42       -0.000008
   45       -0.000007
   49       -0.000026
   52       -0.000098
   56       -0.000100
   59       -0.000301
   63        0.000004
   66        0.000005
   70       -0.000002
   72        0.000063
   75        0.000102
   79       -0.000015
   81       -0.000014
   84       -0.000017
   88        0.000010
   92       -0.001004
   93        0.000234
   94        0.001685
   95        0.001084
   96        0.000170
   98        0.000013
   99       -0.000006
  101       -0.000057
  102        0.000042
  104       -0.000470
  105        0.000195
  107       -0.000292
  108        0.000190
  109        0.000006
  111       -0.000017
  112       -0.000006
  114       -0.000064
  116        0.000018
  117       -0.000036
  119       -0.000044
  121       -0.000014
  122       -0.000051
  124       -0.000005
  126        0.000012
  127        0.000001
  130        0.000005
  131       -0.000003
  133        0.000059
  134        0.000040
  137       -0.000010
  138        0.000008
  140        0.000005
  141        0.000015
  144       -0.000010
  145       -0.000003
  147       -0.001004
  148        0.000234
  149        0.001685
  150        0.001084
  151        0.000170
  153       -0.000013
  154       -0.000006
  156        0.000057
  157        0.000042
  159        0.000470
  160        0.000195
  162        0.000292
  163        0.000190
  164        0.000006
  166        0.000017
  167       -0.000006
  169       -0.000064
  171       -0.000018
  172       -0.000036
  174       -0.000044
  176        0.000014
  177       -0.000051
  179       -0.000005
  181       -0.000012
  182        0.000001
  185       -0.000005
  186       -0.000003
  188       -0.000059
  189        0.000040
  192        0.000010
  193        0.000008
  195       -0.000005
  196        0.000015
  199        0.000010
  200       -0.000003
Sym= A
Ene=   -1.3514
Spin= Alpha
Occup=  2.0000
    1        0.004980
    2       -0.877935
    3        0.001798
    4        0.011860
    5        0.016196
    6        0.011350
    9        0.114085
   12       -0.000995
   15        0.008475
   18       -0.004184
   21       -0.010840
   22       -0.000112
   25        0.000176
   27       -0.000541
   30        0.002142
   32       -0.002604
   35        0.009163
   37       -0.001037
   40        0.004315
   42       -0.000068
   45       -0.000143
   49       -0.001065
   52       -0.002877
   56       -0.001594
   59       -0.003955
   63        0.000115
   66        0.000161
   70       -0.000082
   72        0.000643
   75        0.001031
   79       -0.000403
   81       -0.000075
   84       -0.000080
   88        0.000147
   92       -0.399654
   93        0.006986
   94        0.064309
   95        0.160236
   96        0.068921
   98        0.001439
   99       -0.000979
  101        0.004930
  102       -0.003378
  104        0.009257
  105       -0.005642
  107        0.002061
  108       -0.000123
  109        0.000023
  111        0.000556
  112        0.000412
  114       -0.000131
  116        0.001211
  117        0.000913
  119        0.000204
  121        0.000850
  122        0.000853
  124        0.000052
  126        0.000050
  127        0.000108
  130       -0.000071
  131        0.000076
  133        0.000258
  134        0.000350
  137       -0.000191
  138        0.000025
  140       -0.000007
  141        0.000032
  144       -0.000040
  145       -0.000025
  147       -0.399654
  148        0.006986
  149        0.064309
  150        0.160236
  151        0.068921
  153       -0.001439
  154       -0.000979
  156       -0.004930
  157       -0.003378
  159       -0.009257
  160       -0.005642
  162       -0.002061
  163       -0.000123
  164        0.000023
  166       -0.000556
  167        0.000412
  169       -0.000131
  171       -0.001211
  172        0.000913
  174        0.000204
  176       -0.000850
  177        0.000853
  179        0.000052
  181       -0.000050
  182        0.000108
  185        0.000071
  186        0.000076
  188       -0.000258
  189        0.000350
  192        0.000191
  193        0.000025
  195        0.000007
  196        0.000032
  199        0.000040
  200       -0.000025
Sym= A
Ene=   -0.7163
Spin= Alpha
Occup=  2.0000
    8       -0.736699
   11        0.005342
   14       -0.003378
   17        0.028017
   20        0.041696
   24        0.001763
   29        0.007952
   34        0.027537
   39        0.020001
   44       -0.000083
   48        0.000344
   51       -0.001403
   55        0.003109
   58       -0.002802
   62        0.003790
   65       -0.000103
   69       -0.000216
   74       -0.000585
   78       -0.001524
   83        0.000222
   87        0.000210
   91       -0.000109
   92       -0.619443
   93        0.006023
   94        0.065611
   95        0.152772
   96        0.096422
   98        0.001058
   99       -0.001400
  101        0.003171
  102       -0.004880
  104        0.005414
  105       -0.012307
  107        0.005950
  108       -0.009243
  109       -0.000285
  111        0.000871
  112        0.000375
  114       -0.001006
  116        0.001120
  117       -0.000071
  119       -0.001705
  121        0.002357
  122        0.000801
  124        0.000094
  126        0.000325
  127        0.000333
  130       -0.000093
  131       -0.000062
  133        0.000437
  134        0.000285
  137       -0.000185
  138        0.000076
  140        0.000023
  141        0.000145
  144       -0.000118
  145       -0.000040
  147        0.619443
  148       -0.006023
  149       -0.065611
  150       -0.152772
  151       -0.096422
  153        0.001058
  154        0.001400
  156        0.003171
  157        0.004880
  159        0.005414
  160        0.012307
  162        0.005950
  163        0.009243
  164        0.000285
  166        0.000871
  167       -0.000375
  169        0.001006
  171        0.001120
  172        0.000071
  174        0.001705
  176        0.002357
  177       -0.000801
  179       -0.000094
  181        0.000325
  182       -0.000333
  185       -0.000093
  186        0.000062
  188        0.000437
  189       -0.000285
  192       -0.000185
  193       -0.000076
  195        0.000023
  196       -0.000145
  199       -0.000118
  200        0.000040
Sym= A
Ene=   -0.5842
Spin= Alpha
Occup=  2.0000
    1       -0.003466
    2       -0.308448
    3       -0.002161
    4        0.002870
    5       -0.024140
    6       -0.131888
    9       -0.812313
   12        0.004037
   15        0.002046
   18        0.030425
   21       -0.016447
   22        0.000654
   25       -0.000457
   27        0.004168
   30       -0.002559
   32        0.008351
   35       -0.005206
   37        0.005821
   40       -0.005761
   42        0.000047
   45        0.000431
   49       -0.000012
   52        0.002472
   56        0.000503
   59        0.001802
   63       -0.000098
   66       -0.000184
   70        0.000021
   72       -0.000096
   75       -0.000388
   79        0.000203
   81        0.000033
   84        0.000062
   88       -0.000055
   92        0.368393
   93       -0.001507
   94       -0.019535
   95       -0.084304
   96       -0.062980
   98       -0.001057
   99       -0.000245
  101       -0.004660
  102       -0.000433
  104       -0.015685
  105       -0.005980
  107       -0.010753
  108       -0.016752
  109       -0.000320
  111       -0.000324
  112       -0.000580
  114       -0.001719
  116       -0.000387
  117       -0.001649
  119       -0.004783
  121        0.003431
  122       -0.003017
  124       -0.000243
  126        0.000092
  127       -0.000302
  130        0.000312
  131       -0.000282
  133        0.001172
  134        0.000268
  137        0.000226
  138        0.000012
  140        0.000152
  141        0.000075
  144        0.000065
  145        0.000069
  147        0.368393
  148       -0.001507
  149       -0.019535
  150       -0.084304
  151       -0.062980
  153        0.001057
  154       -0.000245
  156        0.004660
  157       -0.000433
  159        0.015685
  160       -0.005980
  162        0.010753
  163       -0.016752
  164       -0.000320
  166        0.000324
  167       -0.000580
  169       -0.001719
  171        0.000387
  172       -0.001649
  174       -0.004783
  176       -0.003431
  177       -0.003017
  179       -0.000243
  181       -0.000092
  182       -0.000302
  185       -0.000312
  186       -0.000282
  188       -0.001172
  189        0.000268
  192       -0.000226
  193        0.000012
  195       -0.000152
  196        0.000075
  199       -0.000065
  200        0.000069
Sym= A
Ene=   -0.5099
Spin= Alpha
Occup=  2.0000
    7        0.923163
   10       -0.003535
   13       -0.004185
   16       -0.007010
   19        0.055941
   23       -0.000590
   28       -0.004121
   33       -0.007266
   38       -0.008358
   43        0.000145
   47       -0.000432
   50        0.000814
   54       -0.001933
   57        0.000479
   61       -0.001235
   64        0.000008
   68        0.000150
   73       -0.000096
   77        0.000164
   82       -0.000005
   86       -0.000059
   90        0.000036
   97        0.001135
  100        0.004963
  103        0.018923
  106        0.028368
  110        0.000354
  113       -0.000580
  115        0.002038
  118       -0.002313
  120        0.004659
  123       -0.007214
  125        0.000073
  128       -0.000328
  129       -0.000281
  132        0.000508
  135       -0.001427
  136       -0.001159
  139       -0.000011
  142       -0.000121
  143       -0.000216
  146        0.000137
  152        0.001135
  155        0.004963
  158        0.018923
  161        0.028368
  165        0.000354
  168        0.000580
  170        0.002038
  173        0.002313
  175        0.004659
  178        0.007214
  180        0.000073
  183        0.000328
  184       -0.000281
  187        0.000508
  190        0.001427
  191       -0.001159
  194       -0.000011
  197        0.000121
  198       -0.000216
  201       -0.000137
Sym= A
Ene=    0.0903
Spin= Alpha
Occup=  0.0000
    1        0.000383
    2       -0.200781
    3       -0.003923
    4        0.075811
    5        0.120767
    6       -1.092277
    9        0.175336
   12       -0.013756
   15       -0.017774
   18        0.317863
   21       -0.004356
   22       -0.000406
   25        0.001803
   27        0.000613
   30       -0.011336
   32       -0.002444
   35        0.048234
   37       -0.012316
   40        0.145180
   42        0.000685
   45        0.000315
   49       -0.003471
   52       -0.002553
   56       -0.035591
   59       -0.084378
   63       -0.000209
   66       -0.000443
   70        0.000157
   72        0.007626
   75        0.010614
   79       -0.005252
   81       -0.000488
   84       -0.000273
   88        0.001570
   92        0.039394
   93        0.000301
   94        0.482146
   95       -0.447088
   96        1.005820
   98        0.003884
   99       -0.003735
  101       -0.017700
  102        0.018152
  104       -0.038306
  105        0.026095
  107        0.029879
  108        0.000102
  109        0.000096
  111       -0.000171
  112       -0.000818
  114        0.001167
  116       -0.014944
  117       -0.005715
  119        0.005393
  121        0.056159
  122        0.030392
  124       -0.001113
  126       -0.001053
  127       -0.002467
  130        0.001596
  131        0.005963
  133        0.003102
  134        0.013225
  137       -0.008817
  138        0.000119
  140       -0.000340
  141        0.000235
  144       -0.000449
  145       -0.000312
  147        0.039394
  148        0.000301
  149        0.482146
  150       -0.447088
  151        1.005820
  153       -0.003884
  154       -0.003735
  156        0.017700
  157        0.018152
  159        0.038306
  160        0.026095
  162       -0.029879
  163        0.000102
  164        0.000096
  166        0.000171
  167       -0.000818
  169        0.001167
  171        0.014944
  172       -0.005715
  174        0.005393
  176       -0.056159
  177        0.030392
  179       -0.001113
  181        0.001053
  182       -0.002467
  185       -0.001596
  186        0.005963
  188       -0.003102
  189        0.013225
  192        0.008817
  193        0.000119
  195        0.000340
  196        0.000235
  199        0.000449
  200       -0.000312
Sym= A
Ene=    0.1346
Spin= Alpha
Occup=  0.0000
    8       -0.240687
   11        0.017687
   14       -0.085780
   17       -0.098289
   20       -0.843571
   24       -0.000570
   29        0.000584
   34        0.053264
   39        0.180234
   44        0.001224
   48        0.000469
   51       -0.009175
   55        0.000988
   58       -0.064492
   62       -0.002500
   65       -0.001014
   69       -0.000758
   74        0.010801
   78       -0.001492
   83        0.000123
   87        0.001414
   91        0.000176
   92        0.022408
   93       -0.040229
   94        0.389063
   95       -0.161692
   96        2.402977
   98        0.004029
   99       -0.003301
  101       -0.010804
  102        0.010604
  104       -0.070813
  105       -0.021516
  107       -0.109871
  108        0.098340
  109        0.001221
  111        0.001123
  112        0.001878
  114       -0.012225
  116       -0.013071
  117       -0.020439
  119       -0.029811
  121       -0.007461
  122       -0.011175
  124       -0.000277
  126        0.000417
  127       -0.000990
  130        0.001551
  131       -0.010206
  133        0.005560
  134       -0.008023
  137        0.004198
  138        0.000036
  140        0.001074
  141       -0.000025
  144        0.000938
  145        0.000516
  147       -0.022408
  148        0.040229
  149       -0.389063
  150        0.161692
  151       -2.402977
  153        0.004029
  154        0.003301
  156       -0.010804
  157       -0.010604
  159       -0.070813
  160        0.021516
  162       -0.109871
  163       -0.098340
  164       -0.001221
  166        0.001123
  167       -0.001878
  169        0.012225
  171       -0.013071
  172        0.020439
  174        0.029811
  176       -0.007461
  177        0.011175
  179        0.000277
  181        0.000417
  182        0.000990
  185        0.001551
  186        0.010206
  188        0.005560
  189        0.008023
  192        0.004198
  193       -0.000036
  195        0.001074
  196        0.000025
  199        0.000938
  200       -0.000516
Sym= A
Ene=    0.3085
Spin= Alpha
Occup=  0.0000
    1        0.001593
    2       -0.168623
    3        0.006461
    4        0.320235
    5       -2.967184
    6      -11.631175
    9       -0.170178
   12       -0.062275
   15        0.438202
   18        2.266726
   21        3.530024
   22        0.003732
   25       -0.002371
   27       -0.016792
   30       -0.002656
   32        0.066654
   35        0.198003
   37       -0.119954
   40        0.848837
   42        0.001552
   45        0.001484
   49       -0.018713
   52       -0.027772
   56       -0.086957
   59       -0.175001
   63        0.001535
   66        0.001397
   70        0.000423
   72       -0.000305
   75        0.000767
   79       -0.015983
   81        0.001995
   84        0.002340
   88        0.001826
   92        0.159241
   93       -0.134289
   94        1.875753
   95        6.558608
   96       -0.492897
   98       -0.000627
   99        0.001243
  101        0.025719
  102       -0.025518
  104       -0.611937
  105        0.571442
  107       -1.803730
  108        1.324365
  109       -0.003130
  111        0.004182
  112        0.003993
  114        0.025963
  116       -0.069011
  117       -0.044141
  119        0.060553
  121       -0.365532
  122       -0.205897
  124       -0.001549
  126       -0.003757
  127       -0.003155
  130        0.000748
  131       -0.006695
  133       -0.041581
  134       -0.048065
  137        0.025970
  138       -0.001840
  140       -0.001913
  141       -0.003823
  144        0.002877
  145        0.001270
  147        0.159241
  148       -0.134289
  149        1.875753
  150        6.558608
  151       -0.492897
  153        0.000627
  154        0.001243
  156       -0.025719
  157       -0.025518
  159        0.611937
  160        0.571442
  162        1.803730
  163        1.324365
  164       -0.003130
  166       -0.004182
  167        0.003993
  169        0.025963
  171        0.069011
  172       -0.044141
  174        0.060553
  176        0.365532
  177       -0.205897
  179       -0.001549
  181        0.003757
  182       -0.003155
  185       -0.000748
  186       -0.006695
  188        0.041581
  189       -0.048065
  192       -0.025970
  193       -0.001840
  195        0.001913
  196       -0.003823
  199       -0.002877
  200        0.001270
Sym= A
Ene=    0.3486
Spin= Alpha
Occup=  0.0000
    8        0.143847
   11       -0.025060
   14        0.202325
   17        2.606949
   20        3.538496
   24        0.000510
   29        0.014743
   34       -0.169203
   39       -1.259391
   44       -0.001215
   48       -0.002066
   51        0.010670
   55        0.006716
   58        0.234150
   62       -0.036276
   65        0.001932
   69       -0.000406
   74       -0.026290
   78        0.002371
   83        0.001674
   87       -0.000515
   91       -0.001369
   92       -0.228660
   93        0.033785
   94       -1.525879
   95       -5.430012
   96       -0.038743
   98        0.005646
   99       -0.002623
  101       -0.043584
  102        0.025030
  104        0.609125
  105       -0.257362
  107        1.364228
  108       -0.906702
  109       -0.002624
  111       -0.000520
  112       -0.000995
  114        0.026290
  116        0.021266
  117        0.030290
  119        0.101666
  121        0.200808
  122        0.199995
  124        0.000186
  126       -0.000437
  127        0.002849
  130       -0.002638
  131        0.029513
  133       -0.016924
  134        0.021338
  137       -0.018115
  138       -0.000454
  140       -0.002681
  141       -0.000231
  144       -0.002086
  145       -0.001466
  147        0.228660
  148       -0.033785
  149        1.525879
  150        5.430012
  151        0.038743
  153        0.005646
  154        0.002623
  156       -0.043584
  157       -0.025030
  159        0.609125
  160        0.257362
  162        1.364228
  163        0.906702
  164        0.002624
  166       -0.000520
  167        0.000995
  169       -0.026290
  171        0.021266
  172       -0.030290
  174       -0.101666
  176        0.200808