

     ************************************************************************
     *************** Dalton - An Electronic Structure Program ***************
     ************************************************************************

    This is output from DALTON release Dalton2022.0-dev (2022)
         ( Web site: http://daltonprogram.org )

   ----------------------------------------------------------------------------

    NOTE:
     
    Dalton is an experimental code for the evaluation of molecular
    properties using (MC)SCF, DFT, CI, and CC wave functions.
    The authors accept no responsibility for the performance of
    the code or for the correctness of the results.
     
    The code (in whole or part) is provided under a licence and
    is not to be reproduced for further distribution without
    the written permission of the authors or their representatives.
     
    See the home page "http://daltonprogram.org" for further information.
     
    If results obtained with this code are published,
    the appropriate citations would be both of:
     
       K. Aidas, C. Angeli, K. L. Bak, V. Bakken,
       R. Bast, L. Boman, O. Christiansen, R. Cimiraglia,
       S. Coriani, P. Dahle, E. K. Dalskov, U. Ekstroem,
       T. Enevoldsen, J. J. Eriksen, P. Ettenhuber, B. Fernandez,
       L. Ferrighi, H. Fliegl, L. Frediani, K. Hald, A. Halkier,
       C. Haettig, H. Heiberg, T. Helgaker, A. C. Hennum,
       H. Hettema, E. Hjertenaes, S. Hoest, I.-M. Hoeyvik,
       M. F. Iozzi, B. Jansik, H. J. Aa. Jensen, D. Jonsson,
       P. Joergensen, J. Kauczor, S. Kirpekar,
       T. Kjaergaard, W. Klopper, S. Knecht, R. Kobayashi, H. Koch,
       J. Kongsted, A. Krapp, K. Kristensen, A. Ligabue,
       O. B. Lutnaes, J. I. Melo, K. V. Mikkelsen, R. H. Myhre,
       C. Neiss, C. B. Nielsen, P. Norman, J. Olsen,
       J. M. H. Olsen, A. Osted, M. J. Packer, F. Pawlowski,
       T. B. Pedersen, P. F. Provasi, S. Reine, Z. Rinkevicius,
       T. A. Ruden, K. Ruud, V. Rybkin, P. Salek, C. C. M. Samson,
       A. Sanchez de Meras, T. Saue, S. P. A. Sauer,
       B. Schimmelpfennig, K. Sneskov, A. H. Steindal,
       K. O. Sylvester-Hvid, P. R. Taylor, A. M. Teale,
       E. I. Tellgren, D. P. Tew, A. J. Thorvaldsen, L. Thoegersen,
       O. Vahtras, M. A. Watson, D. J. D. Wilson, M. Ziolkowski
       and H. Agren,
       "The Dalton quantum chemistry program system",
       WIREs Comput. Mol. Sci. 2014, 4:269-284 (doi: 10.1002/wcms.1172)
     
    and
     
       Dalton, a molecular electronic structure program,
       Release Dalton2022.0-dev (2022), see http://daltonprogram.org
   ----------------------------------------------------------------------------

    Authors in alphabetical order (Major contribution(s) in parenthesis):

  Kestutis Aidas,              Vilnius University,        Lithuania   (QM/MM)
  Celestino Angeli,            University of Ferrara,     Italy       (NEVPT2)
  Juan J. Aucar,               Northeast National UniversiArgentina   (LRESC, Relativistic Effects on EFG)
  Keld L. Bak,                 UNI-C,                     Denmark     (AOSOPPA, non-adiabatic coupling, magnetic properties)
  Vebjoern Bakken,             University of Oslo,        Norway      (DALTON; geometry optimizer, symmetry detection)
  Radovan Bast,                UiT The Arctic U. of NorwayNorway      (DALTON installation and execution frameworks)
  Pablo Baudin,                University of Valencia,    Spain       (Cholesky excitation energies)
  Linus Boman,                 NTNU,                      Norway      (Cholesky decomposition and subsystems)
  Bruno N. Cabral Tenorio,     Technical Univ. of Denmark,Denmark     (Lanczos-based CC methods)
  Ove Christiansen,            Aarhus University,         Denmark     (CC module)
  Renzo Cimiraglia,            University of Ferrara,     Italy       (NEVPT2)
  Sonia Coriani,               Technical Univ. of Denmark,Denmark     (CC and RESPONS modules)
  Janusz Cukras,               University of Warsaw,      Poland      (MChD in RESPONS)
  Paal Dahle,                  University of Oslo,        Norway      (Parallelization)
  Erik K. Dalskov,             UNI-C,                     Denmark     (SOPPA)
  Thomas Enevoldsen,           Univ. of Southern Denmark, Denmark     (SOPPA)
  Janus J. Eriksen,            Aarhus University,         Denmark     (Polarizable embedding, TDA)
  Rasmus Faber,                Technical Univ. of Denmark,Denmark     (Vib.avg. NMR w. SOPPA, parallel AO-SOPPA, CVS-CC and EOMCC)
  Tobias Fahleson,             KTH Stockholm,             Sweden      (Damped cubic response)
  Berta Fernandez,             U. of Santiago de CompostelSpain       (Doublet spin, ESR in RESPONS)
  Lara Ferrighi,               Aarhus University,         Denmark     (PCM Cubic response)
  Heike Fliegl,                University of Oslo,        Norway      (CCSD(R12))
  Luca Frediani,               UiT The Arctic U. of NorwayNorway      (PCM)
  Emmanuel Fromager,           Univ. Strasbourg,          France      (MC-srDFT)
  Bin Gao,                     UiT The Arctic U. of NorwayNorway      (Gen1Int library)
  Andre S. P. Gomes,           CNRS/Universite de Lille,  France      (Frozen density embedding)
  Christof Haettig,            Ruhr-University Bochum,    Germany     (CC module)
  Kasper Hald,                 Aarhus University,         Denmark     (CC module)
  Asger Halkier,               Aarhus University,         Denmark     (CC module)
  Frederik Beyer Hansen,       University of Copenhagen,  Denmark     (Parallel AO-SOPPA)
  Erik D. Hedegaard,           Univ. of Southern Denmark, Denmark     (Polarizable embedding, QM/MM, and MC-srDFT)
  Hanne Heiberg,               University of Oslo,        Norway      (Geometry analysis, selected one-electron integrals)
  Trygve Helgaker,             University of Oslo,        Norway      (DALTON; ABACUS, ERI, DFT modules, London, and much more)
  Alf Christian Hennum,        University of Oslo,        Norway      (Parity violation)
  Hinne Hettema,               University of Auckland,    New Zealand (Quadratic response in RESPONS; SIRIUS supersymmetry)
  Andreas E. Hillers-Bendtsen, University of Copenhagen,  Denmark     (MP3)
  Eirik Hjertenaes,            NTNU,                      Norway      (Cholesky decomposition)
  Nicolai Machholdt Hoeyer,    Aarhus University,         Denmark     (MP3)
  Pi A. B. Haase,              University of Copenhagen,  Denmark     (Triplet AO-SOPPA)
  Maria Francesca Iozzi,       University of Oslo,        Norway      (RPA)
  Christoph Jacob,             TU Braunschweig            Germany     (Frozen density embedding)
  Brano Jansik,                Technical Univ. of Ostrava Czech Rep.  (DFT cubic response)
  Hans Joergen Aa. Jensen,     Univ. of Southern Denmark, Denmark     (DALTON; SIRIUS, RESPONS, ABACUS, MC-srDFT, and much more)
  Dan Jonsson,                 UiT The Arctic U. of NorwayNorway      (Cubic response in RESPONS module)
  Poul Joergensen,             Aarhus University,         Denmark     (RESPONS, ABACUS, and CC modules)
  Maciej Kaminski,             University of Warsaw,      Poland      (CPPh in RESPONS)
  Joanna Kauczor,              Linkoeping University,     Sweden      (Complex polarization propagator (CPP) module)
  Sheela Kirpekar,             Univ. of Southern Denmark, Denmark     (Mass-velocity & Darwin integrals)
  Frederik Oersted Kjeldal,    Technical Univ. of Denmark,Denmark     (MP3)
  Erik Kjellgren,              Univ. of Southern Denmark, Denmark     (MC-srDFT)
  Wim Klopper,                 KIT Karlsruhe,             Germany     (R12 code in CC, SIRIUS, and ABACUS modules)
  Stefan Knecht,               ETH Zurich,                Switzerland (Parallel CI and MCSCF, MC-srDFT)
  Rika Kobayashi,              Australian National Univ., Australia   (DIIS in CC, London in MCSCF)
  Henrik Koch,                 NTNU,                      Norway      (CC module, Cholesky decomposition)
  Jacob Kongsted,              Univ. of Southern Denmark, Denmark     (Polarizable embedding, polarizable density embedding, QM/MM)
  Andrea Ligabue,              University of Modena,      Italy       (CTOCD, AOSOPPA)
  Nanna H. List,               Univ. of Southern Denmark, Denmark     (Polarizable embedding)
  Ola B. Lutnaes,              University of Oslo,        Norway      (DFT Hessian)
  Juan I. Melo,                University of Buenos Aires,Argentina   (LRESC, Relativistic Effects on NMR Shieldings)
  Kurt V. Mikkelsen,           University of Copenhagen,  Denmark     (MC-SCRF, QM/MM, and MP3)
  Rolf H. Myhre,               NTNU,                      Norway      (Subsystems and CC3)
  Christian Neiss,             Univ. Erlangen-Nuernberg,  Germany     (CCSD(R12))
  Christian B. Nielsen,        University of Copenhagen,  Denmark     (QM/MM)
  Patrick Norman,              KTH Stockholm,             Sweden      (Cubic response and complex frequency response in RESPONS)
  Jeppe Olsen,                 Aarhus University,         Denmark     (SIRIUS CI/density modules)
  Jogvan Magnus H. Olsen,      Aarhus University,         Denmark     (Polarizable embedding and polarizable density embedding)
  Anders Osted,                Copenhagen University,     Denmark     (QM/MM)
  Martin J. Packer,            University of Sheffield,   UK          (SOPPA)
  Filip Pawlowski,             Kazimierz Wielki UniversityPoland      (CC3)
  Morten N. Pedersen,          Univ. of Southern Denmark, Denmark     (Polarizable embedding)
  Thomas B. Pedersen,          University of Oslo,        Norway      (Cholesky decomposition)
  Patricio F. Provasi,         University of Northeastern,Argentina   (Analysis of coupling constants in localized orbitals)
  Peter Reinholdt,             Univ. of Southern Denmark, Denmark     (Polarizable embedding and polarizable density embedding)
  Zilvinas Rinkevicius,        KTH Stockholm,             Sweden      (open-shell DFT, ESR)
  Elias Rudberg,               KTH Stockholm,             Sweden      (DFT grid and basis info)
  Torgeir A. Ruden,            University of Oslo,        Norway      (Numerical derivatives in ABACUS)
  Kenneth Ruud,                UiT The Arctic U. of NorwayNorway      (DALTON; ABACUS magnetic properties and much more)
  Pawel Salek,                 KTH Stockholm,             Sweden      (DALTON; DFT code)
  Claire C. M. Samson,         University of Karlsruhe    Germany     (Boys localization, r12 integrals in ERI)
  Alfredo Sanchez de Meras,    University of Valencia,    Spain       (CC module, Cholesky decomposition)
  Trond Saue,                  Paul Sabatier University,  France      (direct Fock matrix construction)
  Stephan P. A. Sauer,         University of Copenhagen,  Denmark     (SOPPA(CCSD), SOPPA prop., AOSOPPA, vibrational g-factors)
  Bernd Schimmelpfennig,       Forschungszentrum KarlsruheGermany     (AMFI module)
  Anna K. Schnack-Petersen,    University of Copenhagen,  Denmark     (RPA(D) and HRPA(D) properties in AOSOPPA)
  Kristian Sneskov,            Aarhus University,         Denmark     (Polarizable embedding, QM/MM)
  Arnfinn H. Steindal,         UiT The Arctic U. of NorwayNorway      (parallel QM/MM, polarizable embedding)
  Casper Steinmann,            Aalborg University,        Denmark     (QFIT, polarizable embedding)
  K. O. Sylvester-Hvid,        University of Copenhagen,  Denmark     (MC-SCRF)
  Peter R. Taylor,             VLSCI/Univ. of Melbourne,  Australia   (Symmetry handling ABACUS, integral transformation)
  Andrew M. Teale,             University of Nottingham,  England     (DFT-AC, DFT-D)
  David P. Tew,                University of Bristol,     England     (CCSD(R12))
  Julien Toulouse,             Sorbonne Univ.,            France      (MC-srDFT)
  Olav Vahtras,                KTH Stockholm,             Sweden      (Triplet response, spin-orbit, ESR, TDDFT, open-shell DFT)
  Lucas Visscher,              Vrije Universiteit AmsterdaNetherlands (Frozen density embedding)
  David J. Wilson,             La Trobe University,       Australia   (DFT Hessian and DFT magnetizabilities)
  Luna Zamok,                  University of Copenhagen,  Denmark     (Block Lanczos RPA solver in SOPPA module)
  Hans Agren,                  KTH Stockholm,             Sweden      (SIRIUS module, RESPONS, MC-SCRF solvation)
 --------------------------------------------------------------------------------

     Date and time (Linux)  : Tue Mar 26 12:44:07 2024
     Host name              : node103                                 

 * Work memory size             :    64000000 =  488.28 megabytes.

 * Directories for basis set searches:
   1) /home1/s4925076/Sample_inputs_dalton2024_updated/ex4/h2o_svwn5
   2) /home3/hb-qchav/Dalton/basis


Compilation information
-----------------------

 Who compiled             | p256146
 Host                     | login1
 System                   | Linux-4.18.0-425.13.1.el8_7.x86_64
 CMake generator          | Unix Makefiles
 Processor                | x86_64
 64-bit integers          | OFF
 MPI                      | ON
 Fortran compiler         | /cvmfs/hpc.rug.nl/versions/2023.01/rocky8/x86_64/a
                          | md/zen3/software/impi/2021.7.1-intel-compilers-202
                          | 2.2.1/mpi/2021.7.1/bin/mpiifort
 Fortran compiler version | unknown
 C compiler               | /cvmfs/hpc.rug.nl/versions/2023.01/rocky8/x86_64/a
                          | md/zen3/software/impi/2021.7.1-intel-compilers-202
                          | 2.2.1/mpi/2021.7.1/bin/mpiicc
 C compiler version       | unknown
 C++ compiler             | /cvmfs/hpc.rug.nl/versions/2023.01/rocky8/x86_64/a
                          | md/zen3/software/impi/2021.7.1-intel-compilers-202
                          | 2.2.1/mpi/2021.7.1/bin/mpiicpc
 C++ compiler version     | unknown
 BLAS                     | /cvmfs/hpc.rug.nl/versions/2023.01/rocky8/x86_64/a
                          | md/zen3/software/imkl/2022.2.1/mkl/2022.2.1/lib/in
                          | tel64/libmkl_intel_lp64.so;/cvmfs/hpc.rug.nl/versi
                          | ons/2023.01/rocky8/x86_64/amd/zen3/software/imkl/2
                          | 022.2.1/mkl/2022.2.1/lib/intel64/libmkl_sequential
                          | .so;/cvmfs/hpc.rug.nl/versions/2023.01/rocky8/x86_
                          | 64/amd/zen3/software/imkl/2022.2.1/mkl/2022.2.1/li
                          | b/intel64/libmkl_core.so;/usr/lib64/libpthread.so;
                          | /usr/lib64/libm.so
 LAPACK                   | /cvmfs/hpc.rug.nl/versions/2023.01/rocky8/x86_64/a
                          | md/zen3/software/imkl/2022.2.1/mkl/2022.2.1/lib/in
                          | tel64/libmkl_lapack95_lp64.a;/cvmfs/hpc.rug.nl/ver
                          | sions/2023.01/rocky8/x86_64/amd/zen3/software/imkl
                          | /2022.2.1/mkl/2022.2.1/lib/intel64/libmkl_intel_lp
                          | 64.so
 Static linking           | OFF
 Last Git revision        | 4d6ac05be54d7f9c5fe49e0ac32a42491a6c6955
 Git branch               | master
 Configuration time       | 2023-04-05 13:35:07.780405

 * Sequential calculation.


   Content of the .dal input file
 ----------------------------------

**DALTON INPUT
.RUN WAVEFUNCTION
**WAVE FUNCTION
.DFT
SVWN5
*ORBITAL INPUT
**END OF DALTON INPUT


   Content of the .mol file
 ----------------------------

BASIS
cc-pVDZ
Calculation of excitation energies through ABACUS

Atomtypes=2 Multiplicity=1 Charge=0 Nosymmetry
Charge=8.0 Atoms=1
O   0.00000             0.00000              0.1241444240
Charge=1.0 Atoms=2
H   0.00000             1.43153              -0.985265576
H   0.00000            -1.43153              -0.985265576


       *******************************************************************
       *********** Output from DALTON general input processing ***********
       *******************************************************************

 --------------------------------------------------------------------------------
   Overall default print level:    0
   Print level for DALTON.STAT:    1

    HERMIT 1- and 2-electron integral sections will be executed
    "Old" integral transformation used (limited to max 255 basis functions)
    Wave function sections will be executed (SIRIUS module)
 --------------------------------------------------------------------------------


   ****************************************************************************
   *************** Output of molecule and basis set information ***************
   ****************************************************************************


    The two title cards from your ".mol" input:
    --------------------------------------------------------------------------------
 1: Calculation of excitation energies through ABACUS
 2: 
    --------------------------------------------------------------------------------

  Atomic type no.    1
  --------------------
  Nuclear charge:   8.00000
  Number of symmetry independent centers:    1
  Number of basis sets to read;    2
  Basis set file used for this atomic type with Z =   8 :
     "/home3/hb-qchav/Dalton/basis/cc-pVDZ"

  Atomic type no.    2
  --------------------
  Nuclear charge:   1.00000
  Number of symmetry independent centers:    2
  Number of basis sets to read;    2
  Basis set file used for this atomic type with Z =   1 :
     "/home3/hb-qchav/Dalton/basis/cc-pVDZ"


                         SYMGRP: Point group information
                         -------------------------------

@    Point group: C1 


                                 Isotopic Masses
                                 ---------------

                           O          15.994915
                           H           1.007825
                           H           1.007825

                       Total mass:    18.010565 amu
                       Natural abundance:  99.730 %

 Center-of-mass coordinates (a.u.):    0.000000    0.000000   -0.000015
 Center-of-mass coordinates (Angs):    0.000000    0.000000   -0.000008


  Atoms and basis sets
  --------------------

  Number of atom types :    2
  Total number of atoms:    3

  Basis set used is "cc-pVDZ" from the basis set library.

  label    atoms   charge   prim   cont     basis
  ----------------------------------------------------------------------
  O           1    8.0000    26    14      [9s4p1d|3s2p1d]                                    
  H           2    1.0000     7     5      [4s1p|2s1p]                                        
  ----------------------------------------------------------------------
  total:      3   10.0000    40    24
  ----------------------------------------------------------------------
  Spherical harmonic basis used.

  Threshold for neglecting AO integrals:  1.00D-12


  Cartesian Coordinates (a.u.)
  ----------------------------

  Total number of coordinates:    9
  O       :     1  x   0.0000000000    2  y   0.0000000000    3  z   0.1241444240
  H       :     4  x   0.0000000000    5  y   1.4315300000    6  z  -0.9852655760
  H       :     7  x   0.0000000000    8  y  -1.4315300000    9  z  -0.9852655760


   Interatomic separations (in Angstrom):
   --------------------------------------

            O           H           H     
            ------      ------      ------
 O     :    0.000000
 H     :    0.958391    0.000000
 H     :    0.958391    1.515066    0.000000


  Max    interatomic separation is    1.5151 Angstrom (    2.8631 Bohr)
  between atoms    3 and    2, "H     " and "H     ".

  Min HX interatomic separation is    0.9584 Angstrom (    1.8111 Bohr)


  Bond distances (Angstrom):
  --------------------------

                  atom 1     atom 2       distance
                  ------     ------       --------
  bond distance:  H          O            0.958391
  bond distance:  H          O            0.958391


  Bond angles (degrees):
  ----------------------

                  atom 1     atom 2     atom 3         angle
                  ------     ------     ------         -----
  bond angle:     H          O          H            104.450




 Principal moments of inertia (u*A**2) and principal axes
 --------------------------------------------------------

   IA       0.616959          0.000000    1.000000    0.000000
   IB       1.156694          0.000000    0.000000    1.000000
   IC       1.773652          1.000000    0.000000    0.000000


 Rotational constants
 --------------------

@    The molecule is planar.

               A                   B                   C

         819145.5126         436916.9575         284936.9149 MHz
           27.323753           14.573981            9.504472 cm-1


@  Nuclear repulsion energy :    9.183706230245 Hartree


                     .---------------------------------------.
                     | Starting in Integral Section (HERMIT) |
                     `---------------------------------------'



 ***************************************************************************************
 ****************** Output from **INTEGRALS input processing (HERMIT) ******************
 ***************************************************************************************


 - Using defaults, no **INTEGRALS input found

 Default print level:        1

 Calculation of one- and two-electron Hamiltonian integrals.

 Center of mass  (bohr):      0.000000000000      0.000000000000     -0.000015049426
 Operator center (bohr):      0.000000000000      0.000000000000      0.000000000000
 Gauge origin    (bohr):      0.000000000000      0.000000000000      0.000000000000
 Dipole origin   (bohr):      0.000000000000      0.000000000000      0.000000000000

Calculation of 2-electron integrals are postponed until they are needed.


     ************************************************************************
     ************************** Output from HERINT **************************
     ************************************************************************



                      Nuclear contribution to dipole moments
                      --------------------------------------

                 au               Debye          C m (/(10**-30)

      x      0.00000000         0.00000000         0.00000000
      y      0.00000000         0.00000000         0.00000000
      z     -0.97737576        -2.48424123        -8.28653678


  Total CPU  time used in HERMIT:   0.00 seconds
  Total wall time used in HERMIT:   0.00 seconds


                        .----------------------------------.
                        | End of Integral Section (HERMIT) |
                        `----------------------------------'



                   .--------------------------------------------.
                   | Starting in Wave Function Section (SIRIUS) |
                   `--------------------------------------------'


 *** Output from Huckel module :

     Using EWMO model:          T
     Using EHT  model:          F
     Number of Huckel orbitals each symmetry:    7

 EWMO - Energy Weighted Maximum Overlap - is a Huckel type method,
        which normally is better than Extended Huckel Theory.
 Reference: Linderberg and Ohrn, Propagators in Quantum Chemistry (Wiley, 1973)

 Huckel EWMO eigenvalues for symmetry :  1
          -20.684949      -1.610949      -0.778093      -0.688539      -0.616200
           -0.232646      -0.168524

 **********************************************************************
 *SIRIUS* a direct, restricted step, second order MCSCF program       *
 **********************************************************************

 
     Date and time (Linux)  : Tue Mar 26 12:44:07 2024
     Host name              : node103                                 

 Title lines from ".mol" input file:
     Calculation of excitation energies through ABACUS
     

 Print level on unit LUPRI =   2 is   0
 Print level on unit LUW4  =   2 is   5

@    Restricted, closed shell Kohn-Sham DFT calculation.

 Initial molecular orbitals are obtained according to
 ".MOSTART EWMO  " input option

     Wave function specification
     ============================
@    Wave function type        --- KS-DFT ---
@    Number of closed shell electrons          10
@    Number of electrons in active shells       0
@    Total charge of the molecule               0

@    Spin multiplicity and 2 M_S                1         0
@    Total number of symmetries                 1 (point group: C1 )
@    Reference state symmetry                   1 (irrep name : A  )
 
     This is a DFT calculation of type: SVWN5

     Orbital specifications
     ======================
@    Abelian symmetry species          All |    1
@                                          |  A  
                                       --- |  ---
@    Occupied SCF orbitals               5 |    5
@    Secondary orbitals                 19 |   19
@    Total number of orbitals           24 |   24
@    Number of basis functions          24 |   24

     Optimization information
     ========================
@    Number of configurations                 1
@    Number of orbital rotations             95
     ------------------------------------------
@    Total number of variables               96

     Maximum number of Fock   iterations      0
     Maximum number of DIIS   iterations     60
     Maximum number of QC-SCF iterations     60
     Threshold for SCF convergence     1.00D-05
 
     This is a DFT calculation of type: SVWN5


 ***********************************************
 ***** DIIS acceleration of SCF iterations *****
 ***********************************************

 C1-DIIS algorithm; max error vectors =    8

 Iter      Total energy        Error norm    Delta(E)  DIIS dim.
 -----------------------------------------------------------------------------

---> (Re)generating AOTWOINT


     ************************************************************************
     ************************** Output from HERINT **************************
     ************************************************************************


 Threshold for neglecting two-electron integrals:  1.00D-12
 HERMIT - Number of two-electron integrals written:       21643 ( 47.9% )
 HERMIT - Megabytes written:                              0.254

  Total CPU  time used in TWOINT:   0.01 seconds
  Total wall time used in TWOINT:   0.01 seconds
      K-S energy, electrons, error :     -8.725800455166   9.9999994792   -5.21D-07
@  1    -75.6912293536        1.67600D+00   -7.57D+01    1
      Virial theorem: -V/T =      1.997957
@    MULPOP   O      -0.55; H       0.28; H       0.28; 
   1  Level shift: doubly occupied orbital energies shifted by -2.00D-01
 -----------------------------------------------------------------------------
      K-S energy, electrons, error :     -8.788997640722   9.9999994908   -5.09D-07
@  2    -75.8444186083        5.27689D-01   -1.53D-01    2
      Virial theorem: -V/T =      1.999454
@    MULPOP   O      -0.19; H       0.10; H       0.10; 
   2  Level shift: doubly occupied orbital energies shifted by -1.00D-01
 -----------------------------------------------------------------------------
      K-S energy, electrons, error :     -8.803889733596   9.9999994869   -5.13D-07
@  3    -75.8545360630        6.53058D-02   -1.01D-02    3
      Virial theorem: -V/T =      1.998305
@    MULPOP   O      -0.29; H       0.15; H       0.15; 
   3  Level shift: doubly occupied orbital energies shifted by -2.50D-02
 -----------------------------------------------------------------------------
      K-S energy, electrons, error :     -8.772477248045   9.9999994889   -5.11D-07
@  4    -75.8543418615        9.47279D-02    1.94D-04    4
      Virial theorem: -V/T =      2.001170
@    MULPOP   O      -0.27; H       0.14; H       0.14; 
   4  Level shift: doubly occupied orbital energies shifted by -2.50D-02
 -----------------------------------------------------------------------------
      K-S energy, electrons, error :     -8.790791300106   9.9999994877   -5.12D-07
@  5    -75.8547309894        1.44464D-03   -3.89D-04    5
      Virial theorem: -V/T =      1.999476
@    MULPOP   O      -0.29; H       0.15; H       0.15; 
 -----------------------------------------------------------------------------
      K-S energy, electrons, error :     -8.791037279227   9.9999994877   -5.12D-07
@  6    -75.8547311102        2.22825D-04   -1.21D-07    6
      Virial theorem: -V/T =      1.999459
@    MULPOP   O      -0.29; H       0.15; H       0.15; 
 -----------------------------------------------------------------------------
      K-S energy, electrons, error :     -8.790995360011   9.9999994877   -5.12D-07
@  7    -75.8547311124        1.11358D-05   -2.26D-09    7
      Virial theorem: -V/T =      1.999463
@    MULPOP   O      -0.29; H       0.15; H       0.15; 
 -----------------------------------------------------------------------------
      K-S energy, electrons, error :     -8.790993371944   9.9999994877   -5.12D-07
@  8    -75.8547311125        1.67578D-06   -6.59D-12    8

@ *** DIIS converged in   8 iterations !
@     Converged SCF energy, gradient:    -75.854731112456    1.68D-06
    - total time used in SIRFCK :              0.01 seconds


 *** SCF orbital energy analysis ***

 Number of electrons        :   10
 Closed shell orbitals      :    5

 Sym       Kohn-Sham orbital energies

1 A     -18.57954557    -0.89560848    -0.45837935    -0.30407428    -0.22803534
          0.03277813     0.10914094     0.52621764     0.57521509     0.84177577
          0.85542177     0.93569556     1.14948654     1.17368786     1.36839744
          1.53268800     1.60782277     2.03974885     2.07896239     2.83980504
          2.88150193     3.04675482     3.38319196     3.64874584

    E(LUMO) :     0.03277813 au (symmetry 1)
  - E(HOMO) :    -0.22803534 au (symmetry 1)
  ------------------------------------------
    gap     :     0.26081347 au

 --- Writing SIRIFC interface file

--------------------------------------------------------------------------------


     .-----------------------------------------------.
     | DFT KT IPs [a.u. & eV] from Koopmans' theorem |
     `-----------------------------------------------'


     DFT KT symmetry 1 ( A  ) in point group C1  -- 5 principal poles with pole strength 1

   ============  ============  ============  ============  ============
      18.579546      0.895608      0.458379      0.304074      0.228035
     505.575153     24.370746     12.473137      8.274282      6.205157
   ============  ============  ============  ============  ============

@ Summary of DFT KT ionization potentials [eV]:

@ Symmetry 1 (A  ) :   505.575      24.371      12.473       8.274       6.205

  === End of DFT KT output ===
--------------------------------------------------------------------------------


 CPU and wall time for SCF :       0.287       0.547


                       .-----------------------------------.
                       | --- Final results from SIRIUS --- |
                       `-----------------------------------'


@    Spin multiplicity:           1
@    Spatial symmetry:            1 ( irrep  A   in C1  )
@    Total charge of molecule:    0

@    Final DFT energy:            -75.854731112456                 
@    Nuclear repulsion:             9.183706230245
@    Electronic energy:           -85.038437342701

@    Final gradient norm:           0.000001675775

 
     Date and time (Linux)  : Tue Mar 26 12:44:08 2024
     Host name              : node103                                 

File label for MO orbitals:  26Mar24   FOCKDIIS

 (Only coefficients > 0.0100 are printed.)

 Molecular orbitals for symmetry species 1  (A  )
 ------------------------------------------------

    Orbital         1        2        3        4        5        6        7
   1 O   :1s    -1.0044   0.0118  -0.0000   0.0104   0.0000   0.0234  -0.0000
   2 O   :1s    -0.0261  -0.8459  -0.0000  -0.3316   0.0000  -0.2966  -0.0000
   3 O   :1s     0.0211   0.1340   0.0000  -0.1907   0.0000  -0.6964   0.0000
   4 O   :2px    0.0000  -0.0000  -0.0000   0.0000   0.9206   0.0000   0.0000
   5 O   :2py    0.0000   0.0000  -0.7426  -0.0000  -0.0000   0.0000  -0.5773
   6 O   :2pz    0.0034   0.1883   0.0000  -0.7948   0.0000   0.3793   0.0000
   7 O   :2px    0.0000  -0.0000  -0.0000   0.0000   0.0683   0.0000   0.0000
   8 O   :2py   -0.0000  -0.0000   0.1405   0.0000   0.0000  -0.0000  -0.3231
   9 O   :2pz   -0.0021  -0.0873  -0.0000   0.0064   0.0000   0.1168  -0.0000
  11 O   :3d1-   0.0000   0.0000   0.0233  -0.0000  -0.0000   0.0000   0.0062
  12 O   :3d0   -0.0000  -0.0030   0.0000   0.0195  -0.0000  -0.0086   0.0000
  13 O   :3d1+  -0.0000   0.0000   0.0000  -0.0000  -0.0202  -0.0000  -0.0000
  15 H   :1s     0.0017  -0.3498  -0.5482   0.3204  -0.0000   0.2071   0.2244
  16 H   :1s    -0.0021   0.1573   0.1623  -0.1134   0.0000   0.6424   1.1493
  17 H   :2px   -0.0000   0.0000   0.0000  -0.0000   0.0342  -0.0000  -0.0000
  18 H   :2py   -0.0015   0.0366   0.0123  -0.0218   0.0000   0.0122   0.0053
  19 H   :2pz    0.0013  -0.0179  -0.0260  -0.0191  -0.0000  -0.0013  -0.0104
  20 H   :1s     0.0017  -0.3498   0.5482   0.3204  -0.0000   0.2071  -0.2244
  21 H   :1s    -0.0021   0.1573  -0.1623  -0.1134   0.0000   0.6424  -1.1493
  22 H   :2px   -0.0000   0.0000   0.0000  -0.0000   0.0342  -0.0000  -0.0000
  23 H   :2py    0.0015  -0.0366   0.0123   0.0218   0.0000  -0.0122   0.0053
  24 H   :2pz    0.0013  -0.0179   0.0260  -0.0191  -0.0000  -0.0013   0.0104

    Orbital         8        9       10       11       12       13       14
   1 O   :1s    -0.0000   0.0619   0.0108  -0.0000  -0.0000   0.2165   0.0000
   2 O   :1s    -0.0000   0.4472   0.2853  -0.0000  -0.0000   1.1126   0.0000
   3 O   :1s     0.0000  -0.6006   0.4721  -0.0000   0.0000  -1.1904  -0.0000
   4 O   :2px    0.0000   0.0000  -0.0000  -1.4097   0.0000   0.0000   0.0000
   5 O   :2py    0.4109   0.0000   0.0000   0.0000  -1.0930  -0.0000  -0.0000
   6 O   :2pz    0.0000  -0.5642   1.0940  -0.0000   0.0000   0.1977   0.0000
   7 O   :2px    0.0000   0.0000  -0.0000   1.6525   0.0000   0.0000  -0.0000
   8 O   :2py    0.1182  -0.0000  -0.0000  -0.0000   2.2757  -0.0000   0.0000
   9 O   :2pz   -0.0000   0.3490  -1.7354  -0.0000  -0.0000  -0.8272  -0.0000
  10 O   :3d2-  -0.0000   0.0000  -0.0000  -0.0000  -0.0000  -0.0000  -0.1400
  11 O   :3d1-   0.1065   0.0000   0.0000   0.0000  -0.0172   0.0000   0.0000
  12 O   :3d0    0.0000   0.0020   0.0142   0.0000  -0.0000  -0.1274   0.0000
  14 O   :3d2+   0.0000   0.0972   0.0199  -0.0000  -0.0000  -0.0131   0.0000
  15 H   :1s    -1.5980  -1.3567  -0.9260   0.0000  -0.6303  -0.5675   0.0000
  16 H   :1s     1.7039   1.3068   0.3832  -0.0000  -0.5499   0.5129  -0.0000
  17 H   :2px   -0.0000  -0.0000   0.0000   0.0345  -0.0000  -0.0000  -0.6826
  18 H   :2py   -0.0558  -0.2514   0.0173  -0.0000   0.2503   0.3309  -0.0000
  19 H   :2pz    0.1351   0.0479  -0.2304   0.0000  -0.1175   0.5289  -0.0000
  20 H   :1s     1.5980  -1.3567  -0.9260   0.0000   0.6303  -0.5675   0.0000
  21 H   :1s    -1.7039   1.3068   0.3832  -0.0000   0.5499   0.5129  -0.0000
  22 H   :2px   -0.0000  -0.0000   0.0000   0.0345  -0.0000  -0.0000   0.6826
  23 H   :2py   -0.0558   0.2514  -0.0173  -0.0000   0.2503  -0.3309   0.0000
  24 H   :2pz   -0.1351   0.0479  -0.2304   0.0000   0.1175   0.5289  -0.0000

    Orbital        15
   4 O   :2px    0.0123
   7 O   :2px   -0.6703
  13 O   :3d1+  -0.1717
  17 H   :2px    0.7618
  22 H   :2px    0.7618

  Total CPU  time used in SIRIUS :   0.29 seconds
  Total wall time used in SIRIUS :   0.61 seconds

 
     Date and time (Linux)  : Tue Mar 26 12:44:08 2024
     Host name              : node103                                 


                     .---------------------------------------.
                     | End of Wave Function Section (SIRIUS) |
                     `---------------------------------------'

  Total CPU  time used in DALTON:   0.30 seconds
  Total wall time used in DALTON:   0.70 seconds

 
     Date and time (Linux)  : Tue Mar 26 12:44:08 2024
     Host name              : node103                                 
