[Molden Format]
[GTO]
    1 0
 s   9 1.00
   11720.0000000    0.0007100000
    1759.0000000    0.0054700000
     400.8000000    0.0278370000
     113.7000000    0.1048000000
      37.0300000    0.2830620000
      13.2700000    0.4487190000
       5.0250000    0.2709520000
       1.0130000    0.0154580000
       0.3023000   -0.0025850000
 s   9 1.00
   11720.0000000   -0.0001600000
    1759.0000000   -0.0012630000
     400.8000000   -0.0062670000
     113.7000000   -0.0257160000
      37.0300000   -0.0709240000
      13.2700000   -0.1654110000
       5.0250000   -0.1169550000
       1.0130000    0.5573680000
       0.3023000    0.5727590000
 s   9 1.00
   11720.0000000    0.0000000000
    1759.0000000    0.0000000000
     400.8000000    0.0000000000
     113.7000000    0.0000000000
      37.0300000    0.0000000000
      13.2700000    0.0000000000
       5.0250000    0.0000000000
       1.0130000    0.0000000000
       0.3023000    1.0000000000
 p   4 1.00
      17.7000000    0.0430180000
       3.8540000    0.2289130000
       1.0460000    0.5087280000
       0.2753000    0.4605310000
 p   4 1.00
      17.7000000    0.0000000000
       3.8540000    0.0000000000
       1.0460000    0.0000000000
       0.2753000    1.0000000000
 d   1 1.00
       1.1850000    1.0000000000

    2 0
 s   4 1.00
      13.0100000    0.0196850000
       1.9620000    0.1379770000
       0.4446000    0.4781480000
       0.1220000    0.5012400000
 s   4 1.00
      13.0100000    0.0000000000
       1.9620000    0.0000000000
       0.4446000    0.0000000000
       0.1220000    1.0000000000
 p   1 1.00
       0.7270000    1.0000000000

    3 0
 s   4 1.00
      13.0100000    0.0196850000
       1.9620000    0.1379770000
       0.4446000    0.4781480000
       0.1220000    0.5012400000
 s   4 1.00
      13.0100000    0.0000000000
       1.9620000    0.0000000000
       0.4446000    0.0000000000
       0.1220000    1.0000000000
 p   1 1.00
       0.7270000    1.0000000000

[SCFCONV]
scf-first  1  THROUGH   8
      -75.6912293536
      -75.8444186083
      -75.8545360630
      -75.8543418615
      -75.8547309894
      -75.8547311102
      -75.8547311124
      -75.8547311125
[TITLE]
*** Dalton interface to Molden, wave function type : KS-DFT        26Mar24   12:
[Atoms] AU
O          1     8         0.0000000000         0.0000000000         0.124144424
H          2     1         0.0000000000         1.4315300000        -0.985265576
H          3     1         0.0000000000        -1.4315300000        -0.985265576
[5D7F]
[9G]
[MO]
Sym= A
Ene=  -18.5795
Spin= Alpha
Occup=  2.0000
    1       -1.004374
    2       -0.026090
    3        0.021098
    6        0.003374
    9       -0.002133
   10       -0.000029
   13        0.000740
   15        0.001677
   16       -0.002082
   18       -0.001460
   19        0.001269
   20        0.001677
   21       -0.002082
   23        0.001460
   24        0.001269
Sym= A
Ene=   -0.8956
Spin= Alpha
Occup=  2.0000
    1        0.011805
    2       -0.845902
    3        0.133996
    6        0.188311
    9       -0.087330
   10       -0.003032
   13        0.005934
   15       -0.349764
   16        0.157288
   18        0.036637
   19       -0.017909
   20       -0.349764
   21        0.157288
   23       -0.036637
   24       -0.017909
Sym= A
Ene=   -0.4584
Spin= Alpha
Occup=  2.0000
    5       -0.742633
    8        0.140480
   12        0.023322
   15       -0.548243
   16        0.162339
   18        0.012262
   19       -0.025976
   20        0.548243
   21       -0.162339
   23        0.012262
   24        0.025976
Sym= A
Ene=   -0.3041
Spin= Alpha
Occup=  2.0000
    1        0.010400
    2       -0.331585
    3       -0.190715
    6       -0.794824
    9        0.006392
   10        0.019533
   13       -0.001024
   15        0.320417
   16       -0.113387
   18       -0.021756
   19       -0.019065
   20        0.320417
   21       -0.113387
   23        0.021756
   24       -0.019065
Sym= A
Ene=   -0.2280
Spin= Alpha
Occup=  2.0000
    4        0.920602
    7        0.068282
   11       -0.020236
   17        0.034238
   22        0.034238
Sym= A
Ene=    0.0328
Spin= Alpha
Occup=  0.0000
    1        0.023411
    2       -0.296608
    3       -0.696417
    6        0.379346
    9        0.116850
   10       -0.008647
   13        0.001920
   15        0.207124
   16        0.642429
   18        0.012193
   19       -0.001258
   20        0.207124
   21        0.642429
   23       -0.012193
   24       -0.001258
Sym= A
Ene=    0.1091
Spin= Alpha
Occup=  0.0000
    5       -0.577264
    8       -0.323073
   12        0.006157
   15        0.224364
   16        1.149330
   18        0.005296
   19       -0.010412
   20       -0.224364
   21       -1.149330
   23        0.005296
   24        0.010412
Sym= A
Ene=    0.5262
Spin= Alpha
Occup=  0.0000
    5        0.410901
    8        0.118241
   12        0.106540
   15       -1.597975
   16        1.703926
   18       -0.055777
   19        0.135090
   20        1.597975
   21       -1.703926
   23       -0.055777
   24       -0.135090
Sym= A
Ene=    0.5752
Spin= Alpha
Occup=  0.0000
    1        0.061937
    2        0.447225
    3       -0.600621
    6       -0.564223
    9        0.349012
   10        0.002000
   13        0.097152
   15       -1.356746
   16        1.306752
   18       -0.251389
   19        0.047930
   20       -1.356746
   21        1.306752
   23        0.251389
   24        0.047930
Sym= A
Ene=    0.8418
Spin= Alpha
Occup=  0.0000
    1        0.010841
    2        0.285254
    3        0.472060
    6        1.093983
    9       -1.735411
   10        0.014193
   13        0.019925
   15       -0.925973
   16        0.383214
   18        0.017348
   19       -0.230432
   20       -0.925973
   21        0.383214
   23       -0.017348
   24       -0.230432
Sym= A
Ene=    0.8554
Spin= Alpha
Occup=  0.0000
    4       -1.409686
    7        1.652524
   11        0.002575
   17        0.034460
   22        0.034460
Sym= A
Ene=    0.9357
Spin= Alpha
Occup=  0.0000
    5       -1.092975
    8        2.275734
   12       -0.017221
   15       -0.630341
   16       -0.549934
   18        0.250302
   19       -0.117478
   20        0.630341
   21        0.549934
   23        0.250302
   24        0.117478
Sym= A
Ene=    1.1495
Spin= Alpha
Occup=  0.0000
    1        0.216505
    2        1.112649
    3       -1.190415
    6        0.197666
    9       -0.827218
   10       -0.127383
   13       -0.013145
   15       -0.567452
   16        0.512882
   18        0.330867
   19        0.528917
   20       -0.567452
   21        0.512882
   23       -0.330867
   24        0.528917
Sym= A
Ene=    1.1737
Spin= Alpha
Occup=  0.0000
   14       -0.139971
   17       -0.682569
   22        0.682569
Sym= A
Ene=    1.3684
Spin= Alpha
Occup=  0.0000
    4        0.012334
    7       -0.670315
   11       -0.171687
   17        0.761790
   22        0.761790
Sym= A
Ene=    1.5327
Spin= Alpha
Occup=  0.0000
    1       -0.724268
    2       -3.148215
    3        4.809551
    6       -0.097945
    9       -0.951807
   10       -0.122581
   13        0.111784
   15       -1.364725
   16        0.276967
   18        0.351620
   19        0.046842
   20       -1.364725
   21        0.276967
   23       -0.351620
   24        0.046842
Sym= A
Ene=    1.6078
Spin= Alpha
Occup=  0.0000
    5       -0.030219
    8        0.951388
   12        0.034993
   15       -0.669128
   16        0.223795
   18       -0.459948
   19       -0.700341
   20        0.669128
   21       -0.223795
   23       -0.459948
   24        0.700341
Sym= A
Ene=    2.0397
Spin= Alpha
Occup=  0.0000
    5        1.119242
    8       -0.292663
   12        0.141589
   15       -0.473836
   16       -0.162004
   18        0.744076
   19       -0.558956
   20        0.473836
   21        0.162004
   23        0.744076
   24        0.558956
Sym= A
Ene=    2.0790
Spin= Alpha
Occup=  0.0000
    1       -0.247358
    2       -1.307518
    3       -0.172536
    6        0.906813
    9       -0.178361
   10        0.052442
   13       -0.221948
   15        0.828864
   16       -0.221151
   18       -0.763369
   19        0.548978
   20        0.828864
   21       -0.221151
   23        0.763369
   24        0.548978
Sym= A
Ene=    2.8398
Spin= Alpha
Occup=  0.0000
    4        0.024232
    7       -0.332534
   11        1.040804
   17        0.405633
   22        0.405633
Sym= A
Ene=    2.8815
Spin= Alpha
Occup=  0.0000
   14        1.064699
   17       -0.376235
   22        0.376235
Sym= A
Ene=    3.0468
Spin= Alpha
Occup=  0.0000
    1       -0.083463
    2       -0.306695
    3        0.689425
    6       -0.001544
    9       -0.529847
   10        1.078353
   13        0.204289
   15       -0.476281
   16        0.203513
   18        0.342106
   19        0.333946
   20       -0.476281
   21        0.203513
   23       -0.342106
   24        0.333946
Sym= A
Ene=    3.3832
Spin= Alpha
Occup=  0.0000
    1        0.156495
    2        0.404673
    3       -2.564524
    6        0.567935
    9        0.699408
   10       -0.162241
   13        1.154025
   15        2.119998
   16       -0.852802
   18       -0.639389
   19        0.493979
   20        2.119998
   21       -0.852802
   23        0.639389
   24        0.493979
Sym= A
Ene=    3.6487
Spin= Alpha
Occup=  0.0000
    5       -0.655532
    8       -0.883913
   12        1.325935
   15        1.848700
   16       -0.610309
   18       -0.615798
   19        0.505473
   20       -1.848700
   21        0.610309
   23       -0.615798
   24       -0.505473
[End of Molden output from Dalton]
