[Molden Format]
[GTO]
    1 0
 s  10 1.00
    3047.5249000    0.0018347000
     457.3695100    0.0140373000
     103.9486900    0.0688426000
      29.2101550    0.2321844000
       9.2866630    0.4679413000
       3.1639270    0.3623120000
       7.8682724    0.0000000000
       1.8812885    0.0000000000
       0.5442493    0.0000000000
       0.1687144    0.0000000000
 s  10 1.00
    3047.5249000    0.0000000000
     457.3695100    0.0000000000
     103.9486900    0.0000000000
      29.2101550    0.0000000000
       9.2866630    0.0000000000
       3.1639270    0.0000000000
       7.8682724   -0.1193324000
       1.8812885   -0.1608542000
       0.5442493    1.1434564000
       0.1687144    0.0000000000
 s  10 1.00
    3047.5249000    0.0000000000
     457.3695100    0.0000000000
     103.9486900    0.0000000000
      29.2101550    0.0000000000
       9.2866630    0.0000000000
       3.1639270    0.0000000000
       7.8682724    0.0000000000
       1.8812885    0.0000000000
       0.5442493    0.0000000000
       0.1687144    1.0000000000
 p   4 1.00
       7.8682724    0.0689991000
       1.8812885    0.3164240000
       0.5442493    0.7443083000
       0.1687144    0.0000000000
 p   4 1.00
       7.8682724    0.0000000000
       1.8812885    0.0000000000
       0.5442493    0.0000000000
       0.1687144    1.0000000000

    2 0
 s  10 1.00
    4173.5110000    0.0018348000
     627.4579000    0.0139950000
     142.9021000    0.0685870000
      40.2343300    0.2322410000
      12.8202100    0.4690700000
       4.3904370    0.3604550000
      11.6263580    0.0000000000
       2.7162800    0.0000000000
       0.7722180    0.0000000000
       0.2120313    0.0000000000
 s  10 1.00
    4173.5110000    0.0000000000
     627.4579000    0.0000000000
     142.9021000    0.0000000000
      40.2343300    0.0000000000
      12.8202100    0.0000000000
       4.3904370    0.0000000000
      11.6263580   -0.1149610000
       2.7162800   -0.1691180000
       0.7722180    1.1458520000
       0.2120313    0.0000000000
 s  10 1.00
    4173.5110000    0.0000000000
     627.4579000    0.0000000000
     142.9021000    0.0000000000
      40.2343300    0.0000000000
      12.8202100    0.0000000000
       4.3904370    0.0000000000
      11.6263580    0.0000000000
       2.7162800    0.0000000000
       0.7722180    0.0000000000
       0.2120313    1.0000000000
 p   4 1.00
      11.6263580    0.0675800000
       2.7162800    0.3239070000
       0.7722180    0.7408950000
       0.2120313    0.0000000000
 p   4 1.00
      11.6263580    0.0000000000
       2.7162800    0.0000000000
       0.7722180    0.0000000000
       0.2120313    1.0000000000

    3 0
 s   4 1.00
      18.7311370    0.0334946000
       2.8253937    0.2347269500
       0.6401217    0.8137573300
       0.1612778    0.0000000000
 s   4 1.00
      18.7311370    0.0000000000
       2.8253937    0.0000000000
       0.6401217    0.0000000000
       0.1612778    1.0000000000

[SCFCONV]
scf-first  1  THROUGH  12
      -92.4783749945
      -92.7072512112
      -92.7214758464
      -92.7231444631
      -92.7235647724
      -92.7236638829
      -92.7236981871
      -92.7236996425
      -92.7236997206
      -92.7236997235
      -92.7236997240
      -92.7236997240
[GEOMETRIES] XYZ
    3

c              2.7069096603        -0.1144202858         0.6826044869
n              2.9499133085        -0.2039565832        -0.4760402780
h              1.7516579823        -0.6045354921         0.1275230916
    3

c              2.7069096603        -0.1144202858         0.6826044869
n              2.9499133085        -0.2039565832        -0.4760402780
h              1.7516579823        -0.6045354921         0.1275230916
    3

c              2.7069365281        -0.1144014697         0.6826506267
n              2.9498173392        -0.2039926766        -0.4760162744
h              1.7517270839        -0.6045182149         0.1274529484
[GEOCONV]
energy
      -92.7236997240
      -92.7236997240
      -92.7236997188
[TITLE]
*** Dalton interface to Molden, wave function type : HF            26Mar24   12:
[Atoms] AU
c          1     6         5.1153686759        -0.2161874460         1.290022723
n          2     7         5.5743468898        -0.3854902903        -0.899540389
h          3     1         3.3102844343        -1.1423738637         0.240851166
[5D7F]
[9G]
[MO]
Sym= A
Ene=  -15.6754
Spin= Alpha
Occup=  2.0000
    1        0.000177
    2       -0.000554
    3        0.009041
    4       -0.000075
    5        0.000043
    6        0.000451
    7        0.001170
    8       -0.000295
    9       -0.004750
   10        0.996186
   11        0.022996
   12       -0.014857
   13       -0.000953
   14        0.000065
   15        0.002807
   16        0.001343
   17       -0.000337
   18       -0.005447
   19        0.000284
   20        0.000272
Sym= A
Ene=  -11.3249
Spin= Alpha
Occup=  2.0000
    1       -0.996192
    2       -0.023110
    3        0.010049
    4        0.000443
    5        0.000818
    6        0.003842
    7       -0.000986
    8       -0.000981
    9       -0.003455
   10        0.000836
   11        0.000309
   12       -0.002784
   13        0.000100
   14        0.000050
   15        0.000051
   16       -0.000387
   17       -0.000161
   18        0.000004
   19        0.000433
   20       -0.003214
Sym= A
Ene=   -1.3488
Spin= Alpha
Occup=  2.0000
    1       -0.134690
    2        0.281453
    3        0.037915
    4        0.013991
    5       -0.031126
    6       -0.224299
    7       -0.012898
    8        0.000462
    9        0.035464
   10       -0.173741
   11        0.374128
   12        0.335512
   13       -0.063996
   14        0.006729
   15        0.202886
   16       -0.028832
   17       -0.002362
   18        0.058673
   19        0.101004
   20        0.006087
Sym= A
Ene=   -0.7011
Spin= Alpha
Occup=  2.0000
    1       -0.104962
    2        0.229889
    3        0.315129
    4       -0.205391
    5       -0.080716
    6        0.030313
    7       -0.081046
    8       -0.035587
    9       -0.010712
   10        0.131336
   11       -0.296912
   12       -0.509814
   13       -0.178106
   14       -0.043197
   15        0.188889
   16       -0.079819
   17       -0.022061
   18        0.068257
   19        0.220966
   20        0.120474
Sym= A
Ene=   -0.6300
Spin= Alpha
Occup=  2.0000
    1       -0.069372
    2        0.178966
    3        0.163151
    4        0.263641
    5        0.090908
    6       -0.115976
    7        0.073335
    8        0.029996
    9       -0.003684
   10        0.054946
   11       -0.096073
   12       -0.280212
   13        0.163260
   14        0.134848
   15        0.404843
   16        0.125111
   17        0.080014
   18        0.168714
   19       -0.197447
   20       -0.194122
Sym= A
Ene=   -0.5364
Spin= Alpha
Occup=  2.0000
    4        0.126845
    5       -0.303957
    6        0.050092
    7        0.068144
    8       -0.163293
    9        0.026911
   13        0.191623
   14       -0.459184
   15        0.075674
   16        0.133540
   17       -0.320001
   18        0.052736
Sym= A
Ene=   -0.4905
Spin= Alpha
Occup=  2.0000
    1       -0.113600
    2        0.171916
    3        0.635735
    4        0.016106
    5        0.078056
    6        0.432859
    7        0.020247
    8        0.028114
    9        0.119324
   10       -0.002265
   11       -0.007494
   12       -0.024626
   13        0.208958
   14        0.040428
   15       -0.283812
   16        0.166618
   17        0.039404
   18       -0.182816
   19       -0.032671
   20        0.031059
Sym= A
Ene=    0.1056
Spin= Alpha
Occup=  0.0000
    1       -0.048658
    2        0.085103
    3        0.253960
    4        0.111260
    5        0.063268
    6        0.102173
    7        0.118258
    8        0.085671
    9        0.220392
   10       -0.021869
   11        0.025977
   12        0.363947
   13       -0.431193
   14       -0.187578
   15       -0.046339
   16       -0.652712
   17       -0.271390
   18        0.006034
   19       -0.191969
   20       -0.803640
Sym= A
Ene=    0.1662
Spin= Alpha
Occup=  0.0000
    4       -0.160370
    5        0.384293
    6       -0.063332
    7       -0.292974
    8        0.702050
    9       -0.115698
   13        0.146654
   14       -0.351425
   15        0.057915
   16        0.227781
   17       -0.545830
   18        0.089953
Sym= A
Ene=    0.2065
Spin= Alpha
Occup=  0.0000
    1       -0.044925
    2        0.066867
    3        0.759093
    4       -0.375980
    5       -0.163885
    6       -0.042377
    7       -0.926697
    8       -0.418410
    9       -0.192282
   10       -0.032262
   11        0.094338
   12        0.163245
   13        0.088668
   14        0.036928
   15       -0.000448
   16        0.176591
   17        0.072856
   18       -0.005084
   19       -0.084771
   20       -1.496779
Sym= A
Ene=    0.4640
Spin= Alpha
Occup=  0.0000
    1       -0.084292
    2       -0.049348
    3        3.455230
    4       -0.092159
    5       -0.035723
    6        0.016602
    7        0.403438
    8       -0.253732
    9       -2.561236
   10        0.090298
   11       -0.160855
   12       -3.042818
   13       -0.008243
   14       -0.029460
   15       -0.157890
   16        0.158101
   17       -0.173361
   18       -1.452296
   19        0.114755
   20       -0.943133
Sym= A
Ene=    0.7505
Spin= Alpha
Occup=  0.0000
    4       -0.396364
    5        0.949803
    6       -0.156528
    7        0.386353
    8       -0.925814
    9        0.152574
   13       -0.091498
   14        0.219255
   15       -0.036133
   16        0.052957
   17       -0.126900
   18        0.020913
Sym= A
Ene=    0.7523
Spin= Alpha
Occup=  0.0000
    1       -0.043285
    2        0.444829
    3        1.037765
    4        0.732647
    5        0.311683
    6        0.036048
    7       -0.902159
    8       -0.529271
    9       -0.927120
   10        0.032362
   11        0.054498
   12       -1.238087
   13       -0.009134
   14        0.023783
   15        0.167442
   16        0.246626
   17       -0.051858
   18       -0.939186
   19       -0.509496
   20       -0.017700
Sym= A
Ene=    0.7830
Spin= Alpha
Occup=  0.0000
    1        0.028428
    2       -0.124280
    3        1.503496
    4       -0.223280
    5       -0.216652
    6       -0.749242
    7        0.382347
    8        0.162859
    9        0.020031
   10        0.068193
   11       -0.140100
   12       -1.128122
   13       -0.222374
   14       -0.036008
   15        0.344607
   16        0.446690
   17       -0.054777
   18       -1.463507
   19       -0.249203
   20        0.439190
Sym= A
Ene=    0.8996
Spin= Alpha
Occup=  0.0000
    1       -0.002384
    2       -1.393089
    3        1.852163
    4        0.136926
    5        0.074759
    6        0.106909
    7       -0.577434
    8       -0.361449
    9       -0.731064
   10       -0.022256
   11       -0.011858
   12       -0.614801
   13       -0.442326
   14       -0.214782
   15       -0.183218
   16        0.452711
   17        0.259488
   18        0.428193
   19       -0.527492
   20       -0.237047
Sym= A
Ene=    0.9639
Spin= Alpha
Occup=  0.0000
    1       -0.005069
    2        0.737281
    3       -1.873285
    4       -0.646284
    5       -0.186049
    6        0.507601
    7        0.722818
    8        0.309781
    9        0.049399
   10       -0.024497
   11        0.177760
   12        0.204841
   13       -0.258403
   14       -0.071388
   15        0.221158
   16        0.267525
   17        0.161977
   18        0.305433
   19       -0.760779
   20        1.646501
Sym= A
Ene=    0.9892
Spin= Alpha
Occup=  0.0000
    4        0.133156
    5       -0.319080
    6        0.052584
    7       -0.289430
    8        0.693558
    9       -0.114298
   13       -0.370878
   14        0.888731
   15       -0.146463
   16        0.491451
   17       -1.177659
   18        0.194078
Sym= A
Ene=    1.0496
Spin= Alpha
Occup=  0.0000
    1        0.011808
    2        0.845350
    3       -1.403788
    4        0.232823
    5        0.079607
    6       -0.106508
    7       -0.204877
    8       -0.000094
    9        0.518229
   10        0.011282
   11        0.119438
   12        0.372679
   13       -0.750340
   14       -0.352194
   15       -0.237067
   16        1.036982
   17        0.460025
   18        0.165534
   19        0.579219
   20        0.297167
Sym= A
Ene=    1.1331
Spin= Alpha
Occup=  0.0000
    1       -0.058449
    2        0.534702
    3        0.299858
    4       -0.025170
    5       -0.140202
    6       -0.787005
    7        0.348957
    8        0.120706
    9       -0.151201
   10        0.016538
   11        0.595668
   12       -1.673243
   13        0.223165
   14       -0.044377
   15       -0.834386
   16       -0.032504
   17       -0.028027
   18       -0.087763
   19       -0.444288
   20        0.738501
Sym= A
Ene=    1.5296
Spin= Alpha
Occup=  0.0000
    1       -0.053020
    2        0.474441
    3       -4.009427
    4        0.000008
    5       -0.035395
    6       -0.214798
    7       -0.405739
    8        0.171593
    9        2.068646
   10        0.014160
   11       -1.892410
   12        5.077583
   13        0.068945
   14       -0.046304
   15       -0.455554
   16       -0.378340
   17        0.186790
   18        2.091481
   19       -0.280329
   20        0.318327
[End of Molden output from Dalton]
