[Molden Format]
[GTO]
    1 0
 s  10 1.00
    3047.5249000    0.0018347000
     457.3695100    0.0140373000
     103.9486900    0.0688426000
      29.2101550    0.2321844000
       9.2866630    0.4679413000
       3.1639270    0.3623120000
       7.8682724    0.0000000000
       1.8812885    0.0000000000
       0.5442493    0.0000000000
       0.1687144    0.0000000000
 s  10 1.00
    3047.5249000    0.0000000000
     457.3695100    0.0000000000
     103.9486900    0.0000000000
      29.2101550    0.0000000000
       9.2866630    0.0000000000
       3.1639270    0.0000000000
       7.8682724   -0.1193324000
       1.8812885   -0.1608542000
       0.5442493    1.1434564000
       0.1687144    0.0000000000
 s  10 1.00
    3047.5249000    0.0000000000
     457.3695100    0.0000000000
     103.9486900    0.0000000000
      29.2101550    0.0000000000
       9.2866630    0.0000000000
       3.1639270    0.0000000000
       7.8682724    0.0000000000
       1.8812885    0.0000000000
       0.5442493    0.0000000000
       0.1687144    1.0000000000
 p   4 1.00
       7.8682724    0.0689991000
       1.8812885    0.3164240000
       0.5442493    0.7443083000
       0.1687144    0.0000000000
 p   4 1.00
       7.8682724    0.0000000000
       1.8812885    0.0000000000
       0.5442493    0.0000000000
       0.1687144    1.0000000000

    2 0
 s  10 1.00
    3047.5249000    0.0018347000
     457.3695100    0.0140373000
     103.9486900    0.0688426000
      29.2101550    0.2321844000
       9.2866630    0.4679413000
       3.1639270    0.3623120000
       7.8682724    0.0000000000
       1.8812885    0.0000000000
       0.5442493    0.0000000000
       0.1687144    0.0000000000
 s  10 1.00
    3047.5249000    0.0000000000
     457.3695100    0.0000000000
     103.9486900    0.0000000000
      29.2101550    0.0000000000
       9.2866630    0.0000000000
       3.1639270    0.0000000000
       7.8682724   -0.1193324000
       1.8812885   -0.1608542000
       0.5442493    1.1434564000
       0.1687144    0.0000000000
 s  10 1.00
    3047.5249000    0.0000000000
     457.3695100    0.0000000000
     103.9486900    0.0000000000
      29.2101550    0.0000000000
       9.2866630    0.0000000000
       3.1639270    0.0000000000
       7.8682724    0.0000000000
       1.8812885    0.0000000000
       0.5442493    0.0000000000
       0.1687144    1.0000000000
 p   4 1.00
       7.8682724    0.0689991000
       1.8812885    0.3164240000
       0.5442493    0.7443083000
       0.1687144    0.0000000000
 p   4 1.00
       7.8682724    0.0000000000
       1.8812885    0.0000000000
       0.5442493    0.0000000000
       0.1687144    1.0000000000

    3 0
 s  10 1.00
    3047.5249000    0.0018347000
     457.3695100    0.0140373000
     103.9486900    0.0688426000
      29.2101550    0.2321844000
       9.2866630    0.4679413000
       3.1639270    0.3623120000
       7.8682724    0.0000000000
       1.8812885    0.0000000000
       0.5442493    0.0000000000
       0.1687144    0.0000000000
 s  10 1.00
    3047.5249000    0.0000000000
     457.3695100    0.0000000000
     103.9486900    0.0000000000
      29.2101550    0.0000000000
       9.2866630    0.0000000000
       3.1639270    0.0000000000
       7.8682724   -0.1193324000
       1.8812885   -0.1608542000
       0.5442493    1.1434564000
       0.1687144    0.0000000000
 s  10 1.00
    3047.5249000    0.0000000000
     457.3695100    0.0000000000
     103.9486900    0.0000000000
      29.2101550    0.0000000000
       9.2866630    0.0000000000
       3.1639270    0.0000000000
       7.8682724    0.0000000000
       1.8812885    0.0000000000
       0.5442493    0.0000000000
       0.1687144    1.0000000000
 p   4 1.00
       7.8682724    0.0689991000
       1.8812885    0.3164240000
       0.5442493    0.7443083000
       0.1687144    0.0000000000
 p   4 1.00
       7.8682724    0.0000000000
       1.8812885    0.0000000000
       0.5442493    0.0000000000
       0.1687144    1.0000000000

    4 0
 s  10 1.00
    3047.5249000    0.0018347000
     457.3695100    0.0140373000
     103.9486900    0.0688426000
      29.2101550    0.2321844000
       9.2866630    0.4679413000
       3.1639270    0.3623120000
       7.8682724    0.0000000000
       1.8812885    0.0000000000
       0.5442493    0.0000000000
       0.1687144    0.0000000000
 s  10 1.00
    3047.5249000    0.0000000000
     457.3695100    0.0000000000
     103.9486900    0.0000000000
      29.2101550    0.0000000000
       9.2866630    0.0000000000
       3.1639270    0.0000000000
       7.8682724   -0.1193324000
       1.8812885   -0.1608542000
       0.5442493    1.1434564000
       0.1687144    0.0000000000
 s  10 1.00
    3047.5249000    0.0000000000
     457.3695100    0.0000000000
     103.9486900    0.0000000000
      29.2101550    0.0000000000
       9.2866630    0.0000000000
       3.1639270    0.0000000000
       7.8682724    0.0000000000
       1.8812885    0.0000000000
       0.5442493    0.0000000000
       0.1687144    1.0000000000
 p   4 1.00
       7.8682724    0.0689991000
       1.8812885    0.3164240000
       0.5442493    0.7443083000
       0.1687144    0.0000000000
 p   4 1.00
       7.8682724    0.0000000000
       1.8812885    0.0000000000
       0.5442493    0.0000000000
       0.1687144    1.0000000000

    5 0
 s  10 1.00
    5484.6717000    0.0018311000
     825.2349500    0.0139501000
     188.0469600    0.0684451000
      52.9645000    0.2327143000
      16.8975700    0.4701930000
       5.7996353    0.3585209000
      15.5396160    0.0000000000
       3.5999336    0.0000000000
       1.0137618    0.0000000000
       0.2700058    0.0000000000
 s  10 1.00
    5484.6717000    0.0000000000
     825.2349500    0.0000000000
     188.0469600    0.0000000000
      52.9645000    0.0000000000
      16.8975700    0.0000000000
       5.7996353    0.0000000000
      15.5396160   -0.1107775000
       3.5999336   -0.1480263000
       1.0137618    1.1307670000
       0.2700058    0.0000000000
 s  10 1.00
    5484.6717000    0.0000000000
     825.2349500    0.0000000000
     188.0469600    0.0000000000
      52.9645000    0.0000000000
      16.8975700    0.0000000000
       5.7996353    0.0000000000
      15.5396160    0.0000000000
       3.5999336    0.0000000000
       1.0137618    0.0000000000
       0.2700058    1.0000000000
 p   4 1.00
      15.5396160    0.0708743000
       3.5999336    0.3397528000
       1.0137618    0.7271586000
       0.2700058    0.0000000000
 p   4 1.00
      15.5396160    0.0000000000
       3.5999336    0.0000000000
       1.0137618    0.0000000000
       0.2700058    1.0000000000

    6 0
 s   4 1.00
      18.7311370    0.0334946000
       2.8253937    0.2347269500
       0.6401217    0.8137573300
       0.1612778    0.0000000000
 s   4 1.00
      18.7311370    0.0000000000
       2.8253937    0.0000000000
       0.6401217    0.0000000000
       0.1612778    1.0000000000

    7 0
 s   4 1.00
      18.7311370    0.0334946000
       2.8253937    0.2347269500
       0.6401217    0.8137573300
       0.1612778    0.0000000000
 s   4 1.00
      18.7311370    0.0000000000
       2.8253937    0.0000000000
       0.6401217    0.0000000000
       0.1612778    1.0000000000

    8 0
 s   4 1.00
      18.7311370    0.0334946000
       2.8253937    0.2347269500
       0.6401217    0.8137573300
       0.1612778    0.0000000000
 s   4 1.00
      18.7311370    0.0000000000
       2.8253937    0.0000000000
       0.6401217    0.0000000000
       0.1612778    1.0000000000

    9 0
 s   4 1.00
      18.7311370    0.0334946000
       2.8253937    0.2347269500
       0.6401217    0.8137573300
       0.1612778    0.0000000000
 s   4 1.00
      18.7311370    0.0000000000
       2.8253937    0.0000000000
       0.6401217    0.0000000000
       0.1612778    1.0000000000

   10 0
 s   4 1.00
      18.7311370    0.0334946000
       2.8253937    0.2347269500
       0.6401217    0.8137573300
       0.1612778    0.0000000000
 s   4 1.00
      18.7311370    0.0000000000
       2.8253937    0.0000000000
       0.6401217    0.0000000000
       0.1612778    1.0000000000

   11 0
 s   4 1.00
      18.7311370    0.0334946000
       2.8253937    0.2347269500
       0.6401217    0.8137573300
       0.1612778    0.0000000000
 s   4 1.00
      18.7311370    0.0000000000
       2.8253937    0.0000000000
       0.6401217    0.0000000000
       0.1612778    1.0000000000

[SCFCONV]
scf-first  1  THROUGH  12
     -228.9878231850
     -229.6207516425
     -229.6694972003
     -229.6754687268
     -229.6762383036
     -229.6763388258
     -229.6763504490
     -229.6763515439
     -229.6763517212
     -229.6763517331
     -229.6763517335
     -229.6763517335
[GEOMETRIES] XYZ
   11

C             -8.2409700000         2.3663900000         0.1555300000
C             -6.9438800000         2.6674700000         0.0238600000
C             -6.2925800000         3.9586800000         0.0163600000
C             -6.8706100000         5.1642000000        -0.0377500000
O             -9.2524700000         3.2719100000         0.3013400000
H            -10.0806900000         2.7844000000         0.4515000000
H             -8.5917400000         1.3409100000         0.1551700000
H             -6.2524100000         1.8309300000        -0.0738800000
H             -5.2043000000         3.9179700000         0.0386600000
H             -7.9466700000         5.2927900000        -0.0693200000
H             -6.2667900000         6.0652800000        -0.0472200000
   11

C             -8.2409700000         2.3663900000         0.1555300000
C             -6.9438800000         2.6674700000         0.0238600000
C             -6.2925800000         3.9586800000         0.0163600000
C             -6.8706100000         5.1642000000        -0.0377500000
O             -9.2524700000         3.2719100000         0.3013400000
H            -10.0806900000         2.7844000000         0.4515000000
H             -8.5917400000         1.3409100000         0.1551700000
H             -6.2524100000         1.8309300000        -0.0738800000
H             -5.2043000000         3.9179700000         0.0386600000
H             -7.9466700000         5.2927900000        -0.0693200000
H             -6.2667900000         6.0652800000        -0.0472200000
   11

C             -8.2160728785         2.3488934049         0.1664276520
C             -6.9307230696         2.6425511062         0.0354143280
C             -6.2979401073         3.9576869099        -0.0047065245
C             -6.8961299865         5.1474726599        -0.0258134471
O             -9.2143040942         3.2952132743         0.2662917034
H            -10.0711470869         2.8968753973         0.4243618577
H             -8.5544097718         1.3279020841         0.1740364906
H             -6.2639753185         1.8017350059        -0.0682824291
H             -5.2188494657         3.9358784472         0.0097992190
H             -7.9648270617         5.2537371615        -0.0293064762
H             -6.3147311592         6.0529845488        -0.0339723739
   11

C             -8.2157705393         2.3407296565         0.1451295273
C             -6.9317764394         2.6394674930         0.0273212443
C             -6.3006907403         3.9605592368         0.0102282804
C             -6.8985715461         5.1486369596        -0.0149998849
O             -9.2099630853         3.2919290464         0.2675705701
H            -10.0699852449         2.9163889604         0.4312028505
H             -8.5479685524         1.3200396697         0.1654359127
H             -6.2633679035         1.7999775519        -0.0442303659
H             -5.2235960038         3.9373785905        -0.0050908451
H             -7.9641848358         5.2542536518        -0.0224180369
H             -6.3172351091         6.0515691836        -0.0458992525
   11

C             -8.2132125265         2.3294862074         0.1593597584
C             -6.9306064668         2.6369066369         0.0395834841
C             -6.3028987767         3.9636470855        -0.0087583081
C             -6.9002471040         5.1507308350        -0.0252537774
O             -9.2088555856         3.2840880684         0.2440386085
H            -10.0762341387         2.9378869246         0.3981476167
H             -8.5428925340         1.3097564105         0.1766392553
H             -6.2602333820         1.8010576511        -0.0199003596
H             -5.2277845351         3.9375057873        -0.0449525231
H             -7.9631226729         5.2585345721         0.0366259065
H             -6.3170222778         6.0513298214        -0.0412796613
   11

C             -8.2131803366         2.3286459914         0.1636452426
C             -6.9302260493         2.6375439814         0.0440394014
C             -6.3029168994         3.9637161422        -0.0063874583
C             -6.8999840030         5.1514152676        -0.0053900341
O             -9.2075532362         3.2821149100         0.2456575985
H            -10.0769995298         2.9393647117         0.3936593922
H             -8.5442401039         1.3090533679         0.1787684201
H             -6.2594992750         1.8027837575        -0.0302392349
H             -5.2279367182         3.9362383128        -0.0461519905
H             -7.9639569255         5.2584271725         0.0265487810
H             -6.3166169230         6.0516263850        -0.0499001179
   11

C             -8.2139856656         2.3310111729         0.1563732276
C             -6.9304431317         2.6381504101         0.0397476003
C             -6.3029004908         3.9628389460        -0.0080064465
C             -6.9003385482         5.1507652472        -0.0074543752
O             -9.2072153275         3.2835255378         0.2464586678
H            -10.0759163033         2.9360764972         0.3972854210
H             -8.5452296976         1.3111173991         0.1846075142
H             -6.2587527841         1.8028428185        -0.0296085064
H             -5.2273627127         3.9356827171        -0.0428342057
H             -7.9643244902         5.2573836371         0.0217906237
H             -6.3166408482         6.0515356170        -0.0441095209
   11

C             -8.2138420286         2.3323543032         0.1587083867
C             -6.9303509742         2.6386301306         0.0415132986
C             -6.3030966458         3.9624270923        -0.0064895169
C             -6.9003249282         5.1506858509        -0.0065195671
O             -9.2070565098         3.2838358207         0.2452857256
H            -10.0771713256         2.9337600511         0.3883765869
H             -8.5458273021         1.3122365471         0.1833152274
H             -6.2576298016         1.8031183724        -0.0218923183
H             -5.2277404596         3.9351004177        -0.0544811286
H             -7.9636776343         5.2577056572         0.0351658123
H             -6.3163923901         6.0510757569        -0.0487325066
   11

C             -8.2137376963         2.3315108843         0.1594319889
C             -6.9302640661         2.6384536910         0.0431865366
C             -6.3037276085         3.9625844513        -0.0115106465
C             -6.9003025496         5.1510685512        -0.0043761503
O             -9.2069502532         3.2828888333         0.2417471812
H            -10.0785823311         2.9352286467         0.3783784772
H             -8.5448242227         1.3114152062         0.1888698338
H             -6.2570029208         1.8033136366        -0.0155987311
H             -5.2287537056         3.9350090032        -0.0649415323
H             -7.9629938816         5.2586416964         0.0479008123
H             -6.3159707645         6.0508153998        -0.0488377699
   11

C             -8.2136164612         2.3311654821         0.1615437750
C             -6.9299592441         2.6383718465         0.0465822573
C             -6.3040953844         3.9625878645        -0.0149602785
C             -6.9001120433         5.1512941319        -0.0002471167
O             -9.2069778986         3.2823199861         0.2382330947
H            -10.0804498959         2.9359038291         0.3638680711
H             -8.5437476338         1.3110559440         0.1971286082
H             -6.2564938321         1.8034399617        -0.0102550346
H             -5.2298282003         3.9349255930        -0.0806350921
H             -7.9622806104         5.2592193037         0.0609252048
H             -6.3155487959         6.0506460573        -0.0479334892
   11

C             -8.2135633578         2.3313754412         0.1634723947
C             -6.9297300788         2.6383899344         0.0487668529
C             -6.3044399933         3.9624095967        -0.0194088841
C             -6.8997215297         5.1514293231         0.0051898050
O             -9.2070645699         3.2821950010         0.2362508755
H            -10.0824655343         2.9353709254         0.3468285503
H             -8.5430004827         1.3111892683         0.2033244324
H             -6.2557957617         1.8034428551        -0.0018740231
H             -5.2308340146         3.9348601510        -0.0957863261
H             -7.9610529705         5.2597972210         0.0805578902
H             -6.3154417066         6.0504702829        -0.0530715676
   11

C             -8.2134224860         2.3317445509         0.1661352528
C             -6.9295695703         2.6384990131         0.0509997863
C             -6.3046818767         3.9622843297        -0.0231846212
C             -6.8992562815         5.1515255053         0.0086612504
O             -9.2072116308         3.2823738117         0.2372329122
H            -10.0842377907         2.9341240029         0.3308875706
H             -8.5425213195         1.3114645340         0.2078203398
H             -6.2552432826         1.8034329323         0.0066659434
H             -5.2319619135         3.9346811219        -0.1117831109
H             -7.9598238292         5.2602875372         0.0940365126
H             -6.3151800192         6.0505126609        -0.0532218360
   11

C             -8.2131593282         2.3320302072         0.1687190567
C             -6.9293542034         2.6385608254         0.0534112548
C             -6.3046824795         3.9622394031        -0.0250287044
C             -6.8987647368         5.1515037751         0.0125712233
O             -9.2077048699         3.2827585466         0.2345717573
H            -10.0858038059         2.9331460539         0.3129413737
H             -8.5416902975         1.3118166938         0.2171609841
H             -6.2551133692         1.8032989201         0.0110070954
H             -5.2331046935         3.9344869328        -0.1265889776
H             -7.9580777691         5.2605081315         0.1123686968
H             -6.3156544470         6.0505805104        -0.0568837601
   11

C             -8.2131912819         2.3319511419         0.1675326158
C             -6.9294046075         2.6385446342         0.0520796946
C             -6.3044194497         3.9622928864        -0.0234214664
C             -6.8990422668         5.1513690797         0.0101976391
O             -9.2073845203         3.2829673603         0.2376133182
H            -10.0847961786         2.9335278434         0.3219760497
H             -8.5424042269         1.3118086790         0.2121405423
H             -6.2553016891         1.8032962579         0.0072292802
H             -5.2322274710         3.9345165329        -0.1174481010
H             -7.9591012352         5.2599888087         0.1016860715
H             -6.3158370731         6.0506667757        -0.0553356440
   11

C             -8.2131363676         2.3318958048         0.1676684134
C             -6.9294529629         2.6385513998         0.0515084666
C             -6.3043931017         3.9623312463        -0.0235018818
C             -6.8990552562         5.1513674714         0.0099082625
O             -9.2073299024         3.2830277070         0.2383491259
H            -10.0846764433         2.9335225031         0.3222934091
H             -8.5425106586         1.3118371622         0.2123381433
H             -6.2553461956         1.8033304953         0.0064627935
H             -5.2321625937         3.9344536838        -0.1163550249
H             -7.9591600405         5.2598809440         0.1002324655
H             -6.3158864774         6.0507315823        -0.0546541731
[GEOCONV]
energy
     -229.6763517335
     -229.6763517335
     -229.6798236523
     -229.6801671972
     -229.6802083113
     -229.6803303891
     -229.6803593444
     -229.6803677856
     -229.6803756159
     -229.6803803111
     -229.6803850239
     -229.6803872987
     -229.6803880373
     -229.6803891529
     -229.6803892594
[TITLE]
*** Dalton interface to Molden, wave function type : HF            26Mar24   11:
[Atoms] AU
C          1     6       -15.5205783621         4.4066444231         0.316847381
C          2     6       -13.0947682960         4.9861395123         0.097336895
C          3     6       -11.9135763465         7.4877208720        -0.044412120
C          4     6       -13.0373249554         9.7346736901         0.018723902
O          5     8       -17.3993318580         6.2040232270         0.450414570
H          6     1       -19.0572765370         5.5435541124         0.609046275
H          7     1       -16.1430055647         2.4790129571         0.401260936
H          8     1       -11.8208911268         3.4078007490         0.012212909
H          9     1        -9.8873543435         7.4350399139        -0.219879130
H         10     1       -15.0406326615         9.9397344342         0.189411908
H         11     1       -11.9352956789        11.4342255465        -0.103281418
[5D7F]
[9G]
[MO]
Sym= A
Ene=  -20.5853
Spin= Alpha
Occup=  2.0000
    1        0.000030
    2       -0.000087
    3        0.003750
    4       -0.000204
    5        0.000026
    6        0.000017
    7       -0.002961
    8        0.004039
    9        0.000192
   10        0.000038
   11        0.000301
   12       -0.001914
   13        0.000121
   14        0.000168
   15       -0.000013
   16       -0.000163
   17       -0.003859
   18        0.000076
   19       -0.000025
   20       -0.000165
   21        0.002910
   22       -0.000003
   23       -0.000070
   24        0.000001
   25       -0.001308
   26       -0.001431
   27        0.000136
   28        0.000006
   29        0.000036
   30       -0.000497
   31       -0.000029
   32        0.000078
   33        0.000001
   34        0.000665
   35        0.000181
   36       -0.000060
   37        0.995815
   38        0.022960
   39       -0.011853
   40       -0.000199
   41       -0.002007
   42        0.000054
   43       -0.001166
   44        0.002983
   45        0.000049
   46        0.000327
   47        0.001377
   48        0.000003
   49        0.000648
   50       -0.000240
   51       -0.000792
   52       -0.000014
   53        0.000307
   54       -0.000002
   55        0.000562
   56       -0.000052
   57       -0.000062
Sym= A
Ene=  -11.2995
Spin= Alpha
Occup=  2.0000
    1       -0.996078
    2       -0.024133
    3        0.014272
    4        0.000610
    5       -0.000514
    6       -0.000044
    7        0.002941
    8       -0.000427
    9       -0.000249
   10       -0.011245
   11        0.000488
   12       -0.005873
   13       -0.000220
   14       -0.000090
   15        0.000020
   16        0.003445
   17        0.001746
   18       -0.000326
   19        0.000076
   20        0.000157
   21       -0.000368
   22       -0.000102
   23       -0.000078
   24        0.000010
   25        0.000062
   26        0.000999
   27       -0.000021
   28        0.000084
   29        0.000122
   30       -0.000646
   31       -0.000066
   32       -0.000078
   33        0.000007
   34       -0.000027
   35        0.000496
   36       -0.000005
   37        0.000088
   38       -0.000261
   39        0.000117
   40       -0.000027
   41        0.000094
   42        0.000001
   43        0.000217
   44       -0.000704
   45       -0.000007
   46       -0.000105
   47       -0.000097
   48        0.000194
   49       -0.002602
   50        0.000190
   51        0.000054
   52        0.000013
   53       -0.000225
   54        0.000048
   55        0.000008
   56        0.000007
   57       -0.000221
Sym= A
Ene=  -11.2262
Spin= Alpha
Occup=  2.0000
    1       -0.004919
    2       -0.000686
    3        0.002456
    4       -0.000268
    5       -0.000129
    6        0.000025
    7        0.001132
    8        0.000897
    9       -0.000112
   10        0.417558
   11        0.009861
   12       -0.002923
   13       -0.000220
   14       -0.000198
   15        0.000022
   16        0.001063
   17        0.001611
   18       -0.000117
   19        0.903425
   20        0.022309
   21       -0.013754
   22       -0.000132
   23        0.000010
   24        0.000012
   25        0.001479
   26       -0.000788
   27       -0.000117
   28        0.039450
   29        0.000126
   30        0.004994
   31       -0.000068
   32        0.000234
   33        0.000002
   34        0.000250
   35       -0.002588
   36        0.000018
   37        0.000009
   38        0.000044
   39       -0.000448
   40       -0.000029
   41        0.000013
   42        0.000002
   43       -0.000163
   44        0.000002
   45        0.000014
   46        0.000026
   47        0.000041
   48        0.000022
   49        0.000459
   50       -0.000184
   51        0.001108
   52       -0.000277
   53        0.001950
   54       -0.000275
   55       -0.000242
   56       -0.000054
   57        0.000512
Sym= A
Ene=  -11.2252
Spin= Alpha
Occup=  2.0000
    1        0.010804
    2        0.001084
    3       -0.008064
    4        0.000204
    5        0.000018
    6       -0.000018
    7       -0.002682
    8       -0.002706
    9        0.000275
   10       -0.904349
   11       -0.023376
   12        0.020282
   13        0.000345
   14       -0.000100
   15       -0.000028
   16       -0.002915
   17        0.003624
   18        0.000196
   19        0.417369
   20        0.011272
   21       -0.013542
   22       -0.000193
   23       -0.000125
   24        0.000019
   25        0.003936
   26        0.001269
   27       -0.000362
   28        0.019764
   29        0.000231
   30        0.004137
   31        0.000020
   32       -0.000115
   34       -0.000103
   35       -0.001868
   36        0.000037
   37       -0.000021
   38       -0.000180
   39        0.001486
   40        0.000036
   41       -0.000014
   42       -0.000003
   43        0.000384
   44       -0.000272
   45       -0.000028
   46       -0.000128
   47       -0.000087
   48        0.000028
   49       -0.000547
   50        0.000318
   51       -0.001257
   52       -0.000115
   53        0.000258
   54       -0.000178
   55       -0.000350
   56       -0.000048
   57        0.000123
Sym= A
Ene=  -11.2072
Spin= Alpha
Occup=  2.0000
    1        0.000056
    2       -0.000075
    3        0.000344
    4        0.000011
    5       -0.000090
    7        0.000325
    8        0.000215
    9       -0.000031
   10        0.001406
   11       -0.000040
   12       -0.000571
   13       -0.000001
   14       -0.000131
   15        0.000002
   16        0.000363
   17        0.000138
   18       -0.000034
   19       -0.044695
   20       -0.002000
   21        0.006764
   22        0.000154
   23       -0.000308
   24       -0.000009
   25       -0.001407
   26        0.002755
   27        0.000080
   28        0.995153
   29        0.024704
   30       -0.016374
   31        0.000232
   32       -0.000172
   33       -0.000018
   34       -0.000901
   35        0.001627
   36        0.000054
   37        0.000003
   38        0.000009
   39       -0.000104
   40       -0.000045
   41        0.000013
   42        0.000004
   43        0.000104
   44       -0.000150
   45       -0.000007
   46        0.000037
   47        0.000054
   48        0.000006
   49        0.000152
   50        0.000023
   51        0.000202
   52       -0.000126
   53       -0.000014
   54       -0.000182
   55        0.002736
   56       -0.000209
   57        0.002765
Sym= A
Ene=   -1.4014
Spin= Alpha
Occup=  2.0000
    1        0.073962
    2       -0.148938
    3        0.005229
    4        0.073472
    5       -0.070529
    6       -0.005235
    7       -0.015608
    8        0.061375
    9        0.000357
   10        0.016454
   11       -0.029196
   12       -0.049290
   13        0.025166
   14        0.001139
   15       -0.002200
   16        0.013317
   17       -0.037009
   18       -0.000557
   19        0.003853
   20       -0.008704
   21        0.030433
   22        0.003648
   23        0.001892
   24       -0.000346
   25       -0.012732
   26       -0.005690
   27        0.001191
   28        0.002205
   29       -0.003120
   30       -0.009875
   31        0.000530
   32        0.002256
   33       -0.000081
   34        0.002152
   35        0.009693
   36       -0.000333
   37        0.206641
   38       -0.446596
   39       -0.506551
   40        0.010924
   41        0.100312
   42       -0.002788
   43       -0.019146
   44        0.070177
   45        0.000408
   46       -0.129510
   47        0.005233
   48       -0.022104
   49        0.015067
   50       -0.005028
   51       -0.007677
   52       -0.000925
   53        0.001942
   54       -0.001958
   55       -0.003392
   56       -0.000851
   57       -0.003093
Sym= A
Ene=   -1.0798
Spin= Alpha
Occup=  2.0000
    1        0.088226
    2       -0.182995
    3       -0.121346
    4       -0.114675
    5       -0.014568
    6        0.010176
    7       -0.011202
    8        0.010573
    9        0.000798
   10        0.138842
   11       -0.274326
   12       -0.180627
   13        0.043458
   14       -0.027709
   15       -0.003345
   16       -0.003746
   17       -0.009067
   18        0.000463
   19        0.125033
   20       -0.249171