

     ************************************************************************
     *************** Dalton - An Electronic Structure Program ***************
     ************************************************************************

    This is output from DALTON release Dalton2022.0-dev (2022)
         ( Web site: http://daltonprogram.org )

   ----------------------------------------------------------------------------

    NOTE:
     
    Dalton is an experimental code for the evaluation of molecular
    properties using (MC)SCF, DFT, CI, and CC wave functions.
    The authors accept no responsibility for the performance of
    the code or for the correctness of the results.
     
    The code (in whole or part) is provided under a licence and
    is not to be reproduced for further distribution without
    the written permission of the authors or their representatives.
     
    See the home page "http://daltonprogram.org" for further information.
     
    If results obtained with this code are published,
    the appropriate citations would be both of:
     
       K. Aidas, C. Angeli, K. L. Bak, V. Bakken,
       R. Bast, L. Boman, O. Christiansen, R. Cimiraglia,
       S. Coriani, P. Dahle, E. K. Dalskov, U. Ekstroem,
       T. Enevoldsen, J. J. Eriksen, P. Ettenhuber, B. Fernandez,
       L. Ferrighi, H. Fliegl, L. Frediani, K. Hald, A. Halkier,
       C. Haettig, H. Heiberg, T. Helgaker, A. C. Hennum,
       H. Hettema, E. Hjertenaes, S. Hoest, I.-M. Hoeyvik,
       M. F. Iozzi, B. Jansik, H. J. Aa. Jensen, D. Jonsson,
       P. Joergensen, J. Kauczor, S. Kirpekar,
       T. Kjaergaard, W. Klopper, S. Knecht, R. Kobayashi, H. Koch,
       J. Kongsted, A. Krapp, K. Kristensen, A. Ligabue,
       O. B. Lutnaes, J. I. Melo, K. V. Mikkelsen, R. H. Myhre,
       C. Neiss, C. B. Nielsen, P. Norman, J. Olsen,
       J. M. H. Olsen, A. Osted, M. J. Packer, F. Pawlowski,
       T. B. Pedersen, P. F. Provasi, S. Reine, Z. Rinkevicius,
       T. A. Ruden, K. Ruud, V. Rybkin, P. Salek, C. C. M. Samson,
       A. Sanchez de Meras, T. Saue, S. P. A. Sauer,
       B. Schimmelpfennig, K. Sneskov, A. H. Steindal,
       K. O. Sylvester-Hvid, P. R. Taylor, A. M. Teale,
       E. I. Tellgren, D. P. Tew, A. J. Thorvaldsen, L. Thoegersen,
       O. Vahtras, M. A. Watson, D. J. D. Wilson, M. Ziolkowski
       and H. Agren,
       "The Dalton quantum chemistry program system",
       WIREs Comput. Mol. Sci. 2014, 4:269-284 (doi: 10.1002/wcms.1172)
     
    and
     
       Dalton, a molecular electronic structure program,
       Release Dalton2022.0-dev (2022), see http://daltonprogram.org
   ----------------------------------------------------------------------------

    Authors in alphabetical order (Major contribution(s) in parenthesis):

  Kestutis Aidas,              Vilnius University,        Lithuania   (QM/MM)
  Celestino Angeli,            University of Ferrara,     Italy       (NEVPT2)
  Juan J. Aucar,               Northeast National UniversiArgentina   (LRESC, Relativistic Effects on EFG)
  Keld L. Bak,                 UNI-C,                     Denmark     (AOSOPPA, non-adiabatic coupling, magnetic properties)
  Vebjoern Bakken,             University of Oslo,        Norway      (DALTON; geometry optimizer, symmetry detection)
  Radovan Bast,                UiT The Arctic U. of NorwayNorway      (DALTON installation and execution frameworks)
  Pablo Baudin,                University of Valencia,    Spain       (Cholesky excitation energies)
  Linus Boman,                 NTNU,                      Norway      (Cholesky decomposition and subsystems)
  Bruno N. Cabral Tenorio,     Technical Univ. of Denmark,Denmark     (Lanczos-based CC methods)
  Ove Christiansen,            Aarhus University,         Denmark     (CC module)
  Renzo Cimiraglia,            University of Ferrara,     Italy       (NEVPT2)
  Sonia Coriani,               Technical Univ. of Denmark,Denmark     (CC and RESPONS modules)
  Janusz Cukras,               University of Warsaw,      Poland      (MChD in RESPONS)
  Paal Dahle,                  University of Oslo,        Norway      (Parallelization)
  Erik K. Dalskov,             UNI-C,                     Denmark     (SOPPA)
  Thomas Enevoldsen,           Univ. of Southern Denmark, Denmark     (SOPPA)
  Janus J. Eriksen,            Aarhus University,         Denmark     (Polarizable embedding, TDA)
  Rasmus Faber,                Technical Univ. of Denmark,Denmark     (Vib.avg. NMR w. SOPPA, parallel AO-SOPPA, CVS-CC and EOMCC)
  Tobias Fahleson,             KTH Stockholm,             Sweden      (Damped cubic response)
  Berta Fernandez,             U. of Santiago de CompostelSpain       (Doublet spin, ESR in RESPONS)
  Lara Ferrighi,               Aarhus University,         Denmark     (PCM Cubic response)
  Heike Fliegl,                University of Oslo,        Norway      (CCSD(R12))
  Luca Frediani,               UiT The Arctic U. of NorwayNorway      (PCM)
  Emmanuel Fromager,           Univ. Strasbourg,          France      (MC-srDFT)
  Bin Gao,                     UiT The Arctic U. of NorwayNorway      (Gen1Int library)
  Andre S. P. Gomes,           CNRS/Universite de Lille,  France      (Frozen density embedding)
  Christof Haettig,            Ruhr-University Bochum,    Germany     (CC module)
  Kasper Hald,                 Aarhus University,         Denmark     (CC module)
  Asger Halkier,               Aarhus University,         Denmark     (CC module)
  Frederik Beyer Hansen,       University of Copenhagen,  Denmark     (Parallel AO-SOPPA)
  Erik D. Hedegaard,           Univ. of Southern Denmark, Denmark     (Polarizable embedding, QM/MM, and MC-srDFT)
  Hanne Heiberg,               University of Oslo,        Norway      (Geometry analysis, selected one-electron integrals)
  Trygve Helgaker,             University of Oslo,        Norway      (DALTON; ABACUS, ERI, DFT modules, London, and much more)
  Alf Christian Hennum,        University of Oslo,        Norway      (Parity violation)
  Hinne Hettema,               University of Auckland,    New Zealand (Quadratic response in RESPONS; SIRIUS supersymmetry)
  Andreas E. Hillers-Bendtsen, University of Copenhagen,  Denmark     (MP3)
  Eirik Hjertenaes,            NTNU,                      Norway      (Cholesky decomposition)
  Nicolai Machholdt Hoeyer,    Aarhus University,         Denmark     (MP3)
  Pi A. B. Haase,              University of Copenhagen,  Denmark     (Triplet AO-SOPPA)
  Maria Francesca Iozzi,       University of Oslo,        Norway      (RPA)
  Christoph Jacob,             TU Braunschweig            Germany     (Frozen density embedding)
  Brano Jansik,                Technical Univ. of Ostrava Czech Rep.  (DFT cubic response)
  Hans Joergen Aa. Jensen,     Univ. of Southern Denmark, Denmark     (DALTON; SIRIUS, RESPONS, ABACUS, MC-srDFT, and much more)
  Dan Jonsson,                 UiT The Arctic U. of NorwayNorway      (Cubic response in RESPONS module)
  Poul Joergensen,             Aarhus University,         Denmark     (RESPONS, ABACUS, and CC modules)
  Maciej Kaminski,             University of Warsaw,      Poland      (CPPh in RESPONS)
  Joanna Kauczor,              Linkoeping University,     Sweden      (Complex polarization propagator (CPP) module)
  Sheela Kirpekar,             Univ. of Southern Denmark, Denmark     (Mass-velocity & Darwin integrals)
  Frederik Oersted Kjeldal,    Technical Univ. of Denmark,Denmark     (MP3)
  Erik Kjellgren,              Univ. of Southern Denmark, Denmark     (MC-srDFT)
  Wim Klopper,                 KIT Karlsruhe,             Germany     (R12 code in CC, SIRIUS, and ABACUS modules)
  Stefan Knecht,               ETH Zurich,                Switzerland (Parallel CI and MCSCF, MC-srDFT)
  Rika Kobayashi,              Australian National Univ., Australia   (DIIS in CC, London in MCSCF)
  Henrik Koch,                 NTNU,                      Norway      (CC module, Cholesky decomposition)
  Jacob Kongsted,              Univ. of Southern Denmark, Denmark     (Polarizable embedding, polarizable density embedding, QM/MM)
  Andrea Ligabue,              University of Modena,      Italy       (CTOCD, AOSOPPA)
  Nanna H. List,               Univ. of Southern Denmark, Denmark     (Polarizable embedding)
  Ola B. Lutnaes,              University of Oslo,        Norway      (DFT Hessian)
  Juan I. Melo,                University of Buenos Aires,Argentina   (LRESC, Relativistic Effects on NMR Shieldings)
  Kurt V. Mikkelsen,           University of Copenhagen,  Denmark     (MC-SCRF, QM/MM, and MP3)
  Rolf H. Myhre,               NTNU,                      Norway      (Subsystems and CC3)
  Christian Neiss,             Univ. Erlangen-Nuernberg,  Germany     (CCSD(R12))
  Christian B. Nielsen,        University of Copenhagen,  Denmark     (QM/MM)
  Patrick Norman,              KTH Stockholm,             Sweden      (Cubic response and complex frequency response in RESPONS)
  Jeppe Olsen,                 Aarhus University,         Denmark     (SIRIUS CI/density modules)
  Jogvan Magnus H. Olsen,      Aarhus University,         Denmark     (Polarizable embedding and polarizable density embedding)
  Anders Osted,                Copenhagen University,     Denmark     (QM/MM)
  Martin J. Packer,            University of Sheffield,   UK          (SOPPA)
  Filip Pawlowski,             Kazimierz Wielki UniversityPoland      (CC3)
  Morten N. Pedersen,          Univ. of Southern Denmark, Denmark     (Polarizable embedding)
  Thomas B. Pedersen,          University of Oslo,        Norway      (Cholesky decomposition)
  Patricio F. Provasi,         University of Northeastern,Argentina   (Analysis of coupling constants in localized orbitals)
  Peter Reinholdt,             Univ. of Southern Denmark, Denmark     (Polarizable embedding and polarizable density embedding)
  Zilvinas Rinkevicius,        KTH Stockholm,             Sweden      (open-shell DFT, ESR)
  Elias Rudberg,               KTH Stockholm,             Sweden      (DFT grid and basis info)
  Torgeir A. Ruden,            University of Oslo,        Norway      (Numerical derivatives in ABACUS)
  Kenneth Ruud,                UiT The Arctic U. of NorwayNorway      (DALTON; ABACUS magnetic properties and much more)
  Pawel Salek,                 KTH Stockholm,             Sweden      (DALTON; DFT code)
  Claire C. M. Samson,         University of Karlsruhe    Germany     (Boys localization, r12 integrals in ERI)
  Alfredo Sanchez de Meras,    University of Valencia,    Spain       (CC module, Cholesky decomposition)
  Trond Saue,                  Paul Sabatier University,  France      (direct Fock matrix construction)
  Stephan P. A. Sauer,         University of Copenhagen,  Denmark     (SOPPA(CCSD), SOPPA prop., AOSOPPA, vibrational g-factors)
  Bernd Schimmelpfennig,       Forschungszentrum KarlsruheGermany     (AMFI module)
  Anna K. Schnack-Petersen,    University of Copenhagen,  Denmark     (RPA(D) and HRPA(D) properties in AOSOPPA)
  Kristian Sneskov,            Aarhus University,         Denmark     (Polarizable embedding, QM/MM)
  Arnfinn H. Steindal,         UiT The Arctic U. of NorwayNorway      (parallel QM/MM, polarizable embedding)
  Casper Steinmann,            Aalborg University,        Denmark     (QFIT, polarizable embedding)
  K. O. Sylvester-Hvid,        University of Copenhagen,  Denmark     (MC-SCRF)
  Peter R. Taylor,             VLSCI/Univ. of Melbourne,  Australia   (Symmetry handling ABACUS, integral transformation)
  Andrew M. Teale,             University of Nottingham,  England     (DFT-AC, DFT-D)
  David P. Tew,                University of Bristol,     England     (CCSD(R12))
  Julien Toulouse,             Sorbonne Univ.,            France      (MC-srDFT)
  Olav Vahtras,                KTH Stockholm,             Sweden      (Triplet response, spin-orbit, ESR, TDDFT, open-shell DFT)
  Lucas Visscher,              Vrije Universiteit AmsterdaNetherlands (Frozen density embedding)
  David J. Wilson,             La Trobe University,       Australia   (DFT Hessian and DFT magnetizabilities)
  Luna Zamok,                  University of Copenhagen,  Denmark     (Block Lanczos RPA solver in SOPPA module)
  Hans Agren,                  KTH Stockholm,             Sweden      (SIRIUS module, RESPONS, MC-SCRF solvation)
 --------------------------------------------------------------------------------

     Date and time (Linux)  : Tue Mar 26 11:14:09 2024
     Host name              : node103                                 

 * Work memory size             :    64000000 =  488.28 megabytes.

 * Directories for basis set searches:
   1) /home1/s4925076/Sample_inputs_dalton2024_updated/ex3/enol_opt
   2) /home3/hb-qchav/Dalton/basis


Compilation information
-----------------------

 Who compiled             | p256146
 Host                     | login1
 System                   | Linux-4.18.0-425.13.1.el8_7.x86_64
 CMake generator          | Unix Makefiles
 Processor                | x86_64
 64-bit integers          | OFF
 MPI                      | ON
 Fortran compiler         | /cvmfs/hpc.rug.nl/versions/2023.01/rocky8/x86_64/a
                          | md/zen3/software/impi/2021.7.1-intel-compilers-202
                          | 2.2.1/mpi/2021.7.1/bin/mpiifort
 Fortran compiler version | unknown
 C compiler               | /cvmfs/hpc.rug.nl/versions/2023.01/rocky8/x86_64/a
                          | md/zen3/software/impi/2021.7.1-intel-compilers-202
                          | 2.2.1/mpi/2021.7.1/bin/mpiicc
 C compiler version       | unknown
 C++ compiler             | /cvmfs/hpc.rug.nl/versions/2023.01/rocky8/x86_64/a
                          | md/zen3/software/impi/2021.7.1-intel-compilers-202
                          | 2.2.1/mpi/2021.7.1/bin/mpiicpc
 C++ compiler version     | unknown
 BLAS                     | /cvmfs/hpc.rug.nl/versions/2023.01/rocky8/x86_64/a
                          | md/zen3/software/imkl/2022.2.1/mkl/2022.2.1/lib/in
                          | tel64/libmkl_intel_lp64.so;/cvmfs/hpc.rug.nl/versi
                          | ons/2023.01/rocky8/x86_64/amd/zen3/software/imkl/2
                          | 022.2.1/mkl/2022.2.1/lib/intel64/libmkl_sequential
                          | .so;/cvmfs/hpc.rug.nl/versions/2023.01/rocky8/x86_
                          | 64/amd/zen3/software/imkl/2022.2.1/mkl/2022.2.1/li
                          | b/intel64/libmkl_core.so;/usr/lib64/libpthread.so;
                          | /usr/lib64/libm.so
 LAPACK                   | /cvmfs/hpc.rug.nl/versions/2023.01/rocky8/x86_64/a
                          | md/zen3/software/imkl/2022.2.1/mkl/2022.2.1/lib/in
                          | tel64/libmkl_lapack95_lp64.a;/cvmfs/hpc.rug.nl/ver
                          | sions/2023.01/rocky8/x86_64/amd/zen3/software/imkl
                          | /2022.2.1/mkl/2022.2.1/lib/intel64/libmkl_intel_lp
                          | 64.so
 Static linking           | OFF
 Last Git revision        | 4d6ac05be54d7f9c5fe49e0ac32a42491a6c6955
 Git branch               | master
 Configuration time       | 2023-04-05 13:35:07.780405

 * Sequential calculation.


   Content of the .dal input file
 ----------------------------------

**DALTON INPUT
.RUN WAVEFUNCTION
.OPTIMIZE
**WAVE FUNCTION
.HF
**END OF DALTON INPUT


   Content of the .mol file
 ----------------------------

BASIS
6-31G
opt

Atomtypes=3 Nosymmetry Angstrom
Charge=6.0 Atoms=4
C         -8.24097        2.36639        0.15553
C         -6.94388        2.66747        0.02386
C         -6.29258        3.95868        0.01636
C         -6.87061        5.16420       -0.03775
Charge=8.0 Atoms=1
O         -9.25247        3.27191        0.30134
Charge=1.0 Atoms=6
H        -10.08069        2.78440        0.45150
H         -8.59174        1.34091        0.15517
H         -6.25241        1.83093       -0.07388
H         -5.20430        3.91797        0.03866
H         -7.94667        5.29279       -0.06932
H         -6.26679        6.06528       -0.04722



       *******************************************************************
       *********** Output from DALTON general input processing ***********
       *******************************************************************

 --------------------------------------------------------------------------------
   Overall default print level:    0
   Print level for DALTON.STAT:    1

    HERMIT 1- and 2-electron integral sections will be executed
    "Old" integral transformation used (limited to max 255 basis functions)
    Wave function sections will be executed (SIRIUS module)
 --------------------------------------------------------------------------------


 Chosen parameters for *OPTIMI :
 -------------------------------

 Default 1st order method will be used:   BFGS update.
 Optimization will be performed in redundant internal coordinates (by default).
 Model Hessian will be used as initial Hessian.
 The model Hessian parameters of Roland Lindh will be used.
 
 
 Trust region method will be used to control step (default).
 
 Convergence threshold for gradient set to :      1.00D-04
 Convergence threshold for energy set to   :      1.00D-06
 Convergence threshold for step set to     :      1.00D-04
 Number of convergence criteria set to     :   2


              >>>>>>>>>>>>>>>>>>>>>>>>>>>>>>>>>>>>>>>>>>>>>>>>>>>>>
              >>>>>>>>>> 1st Order Geometry Optimization >>>>>>>>>>
              >>>>>>>>>>>>>>>>>>>>>>>>>>>>>>>>>>>>>>>>>>>>>>>>>>>>>


 Reading .mol file to determine number of atoms for parallel runs.


   ****************************************************************************
   *************** Output of molecule and basis set information ***************
   ****************************************************************************


    The two title cards from your ".mol" input:
    --------------------------------------------------------------------------------
 1: opt
 2: 
    --------------------------------------------------------------------------------

  Coordinates are entered in Angstrom and converted to atomic units.
          - Conversion factor : 1 bohr = 0.52917721 A

  Atomic type no.    1
  --------------------
  Nuclear charge:   6.00000
  Number of symmetry independent centers:    4
  Number of basis sets to read;    2
  Basis set file used for this atomic type with Z =   6 :
     "/home3/hb-qchav/Dalton/basis/6-31G"

  Info about the basis set file: your basis has no documentation.
  Basis set: 6-31G                                                                           

  Atomic type no.    2
  --------------------
  Nuclear charge:   8.00000
  Number of symmetry independent centers:    1
  Number of basis sets to read;    2
  Basis set file used for this atomic type with Z =   8 :
     "/home3/hb-qchav/Dalton/basis/6-31G"

  Info about the basis set file: your basis has no documentation.
  Basis set: 6-31G                                                                           

  Atomic type no.    3
  --------------------
  Nuclear charge:   1.00000
  Number of symmetry independent centers:    6
  Number of basis sets to read;    2
  Basis set file used for this atomic type with Z =   1 :
     "/home3/hb-qchav/Dalton/basis/6-31G"

  Info about the basis set file: your basis has no documentation.
  Basis set: 6-31G                                                                           


                         SYMGRP: Point group information
                         -------------------------------

@    Point group: C1 


                                 Isotopic Masses
                                 ---------------

                           C          12.000000
                           C          12.000000
                           C          12.000000
                           C          12.000000
                           O          15.994915
                           H           1.007825
                           H           1.007825
                           H           1.007825
                           H           1.007825
                           H           1.007825
                           H           1.007825

                       Total mass:    70.041865 amu
                       Natural abundance:  95.357 %

 Center-of-mass coordinates (a.u.):  -14.376497    6.572673    0.193564
 Center-of-mass coordinates (Angs):   -7.607715    3.478109    0.102430


  Atoms and basis sets
  --------------------

  Number of atom types :    3
  Total number of atoms:   11

  Basis set used is "6-31G" from the basis set library.

  label    atoms   charge   prim   cont     basis
  ----------------------------------------------------------------------
  C           4    6.0000    22     9      [10s4p|3s2p]                                       
  O           1    8.0000    22     9      [10s4p|3s2p]                                       
  H           6    1.0000     4     2      [4s|2s]                                            
  ----------------------------------------------------------------------
  total:     11   38.0000   134    57
  ----------------------------------------------------------------------

  Threshold for neglecting AO integrals:  1.00D-12


  Cartesian Coordinates (a.u.)
  ----------------------------

  Total number of coordinates:   33
  C       :     1  x -15.5731763043    2  y   4.4718290049    3  z   0.2939091042
  C       :     4  x -13.1220314448    5  y   5.0407877466    6  z   0.0450888653
  C       :     7  x -11.8912528196    8  y   7.4808210165    9  z   0.0309159194
  C       :    10  x -12.9835712116   11  y   9.7589236547   12  z  -0.0713371612
  O       :    13  x -17.4846342797   14  y   6.1830138056   15  z   0.5694500705
  H       :    16  x -19.0497432510   17  y   5.2617534224   18  z   0.8532113454
  H       :    19  x -16.2360355372   20  y   2.5339526583   21  z   0.2932288028
  H       :    22  x -11.8153425212   23  y   3.4599562540   24  z  -0.1396129661
  H       :    25  x  -9.8347016723   26  y   7.4038902659   27  z   0.0730568120
  H       :    28  x -15.0170299057   29  y  10.0019235371   30  z  -0.1309958150
  H       :    31  x -11.8425167828   32  y  11.4617180714   33  z  -0.0892328676


   Interatomic separations (in Angstrom):
   --------------------------------------

            C           C           C           C           O           H     
            ------      ------      ------      ------      ------      ------
 C     :    0.000000
 C     :    1.338069    0.000000
 C     :    2.520115    1.446192    0.000000
 C     :    3.121375    2.498565    1.338030    0.000000
 O     :    1.365415    2.402484    3.051854    3.060882    0.000000
 H     :    1.909686    3.167984    3.989744    4.025845    0.972709    0.000000
 H     :    1.083812    2.119539    3.486850    4.197267    2.046140    2.094862
 H     :    2.072129    1.089717    2.130042    3.390305    3.349265    3.980057
 H     :    3.412100    2.142454    1.089269    2.082190    4.107807    5.023405
 H     :    2.949744    2.811863    2.126783    1.084176    2.434432    3.334264
 H     :    4.197652    3.465345    2.107717    1.084727    4.103498    5.055564

            H           H           H           H           H     
            ------      ------      ------      ------      ------
 H     :    0.000000
 H     :    2.401052    0.000000
 H     :    4.257882    2.338148    0.000000
 H     :    4.010470    3.854220    3.069590    0.000000
 H     :    5.269348    4.234458    2.397332    1.849115    0.000000


  Max    interatomic separation is    5.2693 Angstrom (    9.9576 Bohr)
  between atoms   11 and    7, "H     " and "H     ".

  Min HX interatomic separation is    0.9727 Angstrom (    1.8382 Bohr)

  Min YX interatomic separation is    1.3380 Angstrom (    2.5285 Bohr)


  Bond distances (Angstrom):
  --------------------------

                  atom 1     atom 2       distance
                  ------     ------       --------
  bond distance:  C          C            1.338069
  bond distance:  C          C            1.446192
  bond distance:  C          C            1.338030
  bond distance:  O          C            1.365415
  bond distance:  H          O            0.972709
  bond distance:  H          C            1.083812
  bond distance:  H          C            1.089717
  bond distance:  H          C            1.089269
  bond distance:  H          C            1.084176
  bond distance:  H          C            1.084727


  Bond angles (degrees):
  ----------------------

                  atom 1     atom 2     atom 3         angle
                  ------     ------     ------         -----
  bond angle:     C          C          O            125.408
  bond angle:     C          C          H            121.776
  bond angle:     O          C          H            112.816
  bond angle:     C          C          C            129.641
  bond angle:     C          C          H            116.821
  bond angle:     C          C          H            113.526
  bond angle:     C          C          C            127.595
  bond angle:     C          C          H            114.612
  bond angle:     C          C          H            117.782
  bond angle:     C          C          H            122.466
  bond angle:     C          C          H            120.551
  bond angle:     H          C          H            116.982
  bond angle:     C          O          H            108.353




 Principal moments of inertia (u*A**2) and principal axes
 --------------------------------------------------------

   IA      51.460673          0.792135    0.603857   -0.088765
   IB     125.737094         -0.602056    0.796956    0.048875
   IC     176.860537          0.100255    0.014726    0.994853


 Rotational constants
 --------------------

               A                   B                   C

           9820.6840           4019.3311           2857.5001 MHz
            0.327583            0.134070            0.095316 cm-1


@  Nuclear repulsion energy :  159.519327029616 Hartree


                     .---------------------------------------.
                     | Starting in Integral Section (HERMIT) |
                     `---------------------------------------'



 ***************************************************************************************
 ****************** Output from **INTEGRALS input processing (HERMIT) ******************
 ***************************************************************************************


 - Using defaults, no **INTEGRALS input found

 Default print level:        1

 Calculation of one- and two-electron Hamiltonian integrals.

 Center of mass  (bohr):    -14.376497383563      6.572673008373      0.193564353573
 Operator center (bohr):      0.000000000000      0.000000000000      0.000000000000
 Gauge origin    (bohr):      0.000000000000      0.000000000000      0.000000000000
 Dipole origin   (bohr):      0.000000000000      0.000000000000      0.000000000000

Calculation of 2-electron integrals are postponed until they are needed.


     ************************************************************************
     ************************** Output from HERINT **************************
     ************************************************************************



                      Nuclear contribution to dipole moments
                      --------------------------------------

                 au               Debye          C m (/(10**-30)

      x   -545.09263459     -1385.48719133     -4621.48781384
      y    250.10147319       635.69449604      2120.44859392
      z      7.20671624        18.31764440        61.10108480


  Total CPU  time used in HERMIT:   0.03 seconds
  Total wall time used in HERMIT:   0.03 seconds


                        .----------------------------------.
                        | End of Integral Section (HERMIT) |
                        `----------------------------------'



                   .--------------------------------------------.
                   | Starting in Wave Function Section (SIRIUS) |
                   `--------------------------------------------'


 *** Output from Huckel module :

     Using EWMO model:          T
     Using EHT  model:          F
     Number of Huckel orbitals each symmetry:   31

 EWMO - Energy Weighted Maximum Overlap - is a Huckel type method,
        which normally is better than Extended Huckel Theory.
 Reference: Linderberg and Ohrn, Propagators in Quantum Chemistry (Wiley, 1973)

 Huckel EWMO eigenvalues for symmetry :  1
          -20.685111     -11.359272     -11.354328     -11.348319     -11.345033
           -1.821701      -1.580716      -1.329135      -1.039017      -0.945037
           -0.796064      -0.749796      -0.702057      -0.594064      -0.577270
           -0.572512      -0.472095      -0.432889      -0.425441      -0.272129
           -0.226914      -0.202140      -0.168727      -0.134572      -0.127607
           -0.124966      -0.113796      -0.100943      -0.094813      -0.088313
           -0.079924

 **********************************************************************
 *SIRIUS* a direct, restricted step, second order MCSCF program       *
 **********************************************************************

 
     Date and time (Linux)  : Tue Mar 26 11:14:09 2024
     Host name              : node103                                 

 Title lines from ".mol" input file:
     opt
     

 Print level on unit LUPRI =   2 is   0
 Print level on unit LUW4  =   2 is   5

@    Restricted, closed shell Hartree-Fock calculation.

@    Time-dependent Hartree-Fock calculation (random phase approximation).

 Initial molecular orbitals are obtained according to
 ".MOSTART EWMO  " input option

     Wave function specification
     ============================
@    Wave function type        --- HF ---
@    Number of closed shell electrons          38
@    Number of electrons in active shells       0
@    Total charge of the molecule               0

@    Spin multiplicity and 2 M_S                1         0
@    Total number of symmetries                 1 (point group: C1 )
@    Reference state symmetry                   1 (irrep name : A  )

     Orbital specifications
     ======================
@    Abelian symmetry species          All |    1
@                                          |  A  
                                       --- |  ---
@    Occupied SCF orbitals              19 |   19
@    Secondary orbitals                 38 |   38
@    Total number of orbitals           57 |   57
@    Number of basis functions          57 |   57

     Optimization information
     ========================
@    Number of configurations                 1
@    Number of orbital rotations            722
     ------------------------------------------
@    Total number of variables              723

     Maximum number of Fock   iterations      0
     Maximum number of DIIS   iterations     60
     Maximum number of QC-SCF iterations     60
     Threshold for SCF convergence     1.00D-05


 ***********************************************
 ***** DIIS acceleration of SCF iterations *****
 ***********************************************

 C1-DIIS algorithm; max error vectors =    8

 Iter      Total energy        Error norm    Delta(E)  DIIS dim.
 -----------------------------------------------------------------------------

Calculating AOSUPINT

---> (Re)generating AOTWOINT


     ************************************************************************
     ************************** Output from HERINT **************************
     ************************************************************************


 Threshold for neglecting two-electron integrals:  1.00D-12
 HERMIT - Number of two-electron integrals written:     1301207 ( 95.2% )
 HERMIT - Megabytes written:                             14.902

  Total CPU  time used in TWOINT:   0.17 seconds
  Total wall time used in TWOINT:   0.17 seconds
  Time used in TWOINT     is       0.17 seconds
  CPU  time used in MAKE_AOTWOINT is   0.17 seconds
  WALL time used in MAKE_AOTWOINT is   0.17 seconds
     (Precalculated AO two-electron integrals are transformed to P-supermatrix elements.
      Threshold for discarding integrals :  1.00D-12 )

@  1    -228.987823185        2.93665D+00   -2.29D+02    1
      Virial theorem: -V/T =      2.011316
@    MULPOP   C       0.57; C       0.22; C       0.33; C       0.07; O      -0.61; H       0.27; H      -0.19; H      -0.16; H      -0.19; H      -0.15; 
@             H      -0.15; 
   1  Level shift: doubly occupied orbital energies shifted by -2.00D-01
 -----------------------------------------------------------------------------
@  2    -229.620751642        8.31483D-01   -6.33D-01    2
      Virial theorem: -V/T =      2.000157
@    MULPOP   C       0.12; C      -0.28; C      -0.19; C      -0.22; O      -0.48; H       0.35; H       0.14; H       0.16; H       0.14; H       0.14; 
@             H       0.11; 
   2  Level shift: doubly occupied orbital energies shifted by -1.00D-01
 -----------------------------------------------------------------------------
@  3    -229.669497200        2.89610D-01   -4.87D-02    3
      Virial theorem: -V/T =      1.999109
@    MULPOP   C       0.18; C      -0.19; C      -0.10; C      -0.34; O      -0.72; H       0.41; H       0.16; H       0.15; H       0.15; H       0.17; 
@             H       0.13; 
   3  Level shift: doubly occupied orbital energies shifted by -5.00D-02
 -----------------------------------------------------------------------------
@  4    -229.675468727        9.04857D-02   -5.97D-03    4
      Virial theorem: -V/T =      2.000457
@    MULPOP   C       0.19; C      -0.25; C      -0.15; C      -0.34; O      -0.71; H       0.41; H       0.17; H       0.17; H       0.16; H       0.19; 
@             H       0.14; 
   4  Level shift: doubly occupied orbital energies shifted by -2.50D-02
 -----------------------------------------------------------------------------
@  5    -229.676238304        2.16324D-02   -7.70D-04    5
      Virial theorem: -V/T =      1.999719
@    MULPOP   C       0.18; C      -0.24; C      -0.15; C      -0.36; O      -0.73; H       0.42; H       0.18; H       0.18; H       0.17; H       0.20; 
@             H       0.15; 
 -----------------------------------------------------------------------------
@  6    -229.676338826        6.19578D-03   -1.01D-04    6
      Virial theorem: -V/T =      1.999744
@    MULPOP   C       0.17; C      -0.24; C      -0.16; C      -0.36; O      -0.73; H       0.42; H       0.18; H       0.18; H       0.17; H       0.21; 
@             H       0.15; 
 -----------------------------------------------------------------------------
@  7    -229.676350449        2.66670D-03   -1.16D-05    7
      Virial theorem: -V/T =      1.999751
@    MULPOP   C       0.17; C      -0.24; C      -0.16; C      -0.36; O      -0.73; H       0.42; H       0.18; H       0.18; H       0.17; H       0.21; 
@             H       0.15; 
 -----------------------------------------------------------------------------
@  8    -229.676351544        7.69400D-04   -1.09D-06    8
      Virial theorem: -V/T =      1.999751
@    MULPOP   C       0.17; C      -0.24; C      -0.16; C      -0.36; O      -0.73; H       0.42; H       0.18; H       0.18; H       0.17; H       0.21; 
@             H       0.15; 
 -----------------------------------------------------------------------------
@  9    -229.676351721        2.53064D-04   -1.77D-07    8
      Virial theorem: -V/T =      1.999750
@    MULPOP   C       0.17; C      -0.24; C      -0.16; C      -0.36; O      -0.73; H       0.42; H       0.18; H       0.18; H       0.17; H       0.21; 
@             H       0.15; 
 -----------------------------------------------------------------------------
@ 10    -229.676351733        4.76077D-05   -1.18D-08    8
      Virial theorem: -V/T =      1.999750
@    MULPOP   C       0.17; C      -0.24; C      -0.16; C      -0.36; O      -0.73; H       0.42; H       0.18; H       0.18; H       0.17; H       0.21; 
@             H       0.15; 
 -----------------------------------------------------------------------------
@ 11    -229.676351734        1.75470D-05   -4.25D-10    8
      Virial theorem: -V/T =      1.999750
@    MULPOP   C       0.17; C      -0.24; C      -0.16; C      -0.36; O      -0.73; H       0.42; H       0.18; H       0.18; H       0.17; H       0.21; 
@             H       0.15; 
 -----------------------------------------------------------------------------
@ 12    -229.676351734        6.09320D-06   -2.38D-11    8

@ *** DIIS converged in  12 iterations !
@     Converged SCF energy, gradient:   -229.676351733536    6.09D-06
    - total time used in SIRFCK :              0.00 seconds


 *** SCF orbital energy analysis ***

 Only the 20 lowest virtual orbital energies printed in each symmetry.

 Number of electrons        :   38
 Closed shell orbitals      :   19

 Sym       Hartree-Fock orbital energies

1 A     -20.59375319   -11.30332961   -11.22903653   -11.22817743   -11.21281389
         -1.40941337    -1.07945784    -0.98694960    -0.83764482    -0.74164125
         -0.73130464    -0.62880100    -0.61554617    -0.57719192    -0.54876501
         -0.52423530    -0.47422120    -0.41639080    -0.29592710     0.13275865
          0.19364844     0.25985520     0.28781690     0.29391122     0.32384700
          0.34336898     0.36243433     0.43776370     0.51413888     0.57589567
          0.59778425     0.71297815     0.75795228     0.78568805     0.83175464
          0.84343831     0.87681163     0.90129871     0.94962402

    E(LUMO) :     0.13275865 au (symmetry 1)
  - E(HOMO) :    -0.29592710 au (symmetry 1)
  ------------------------------------------
    gap     :     0.42868575 au

 --- Writing SIRIFC interface file

--------------------------------------------------------------------------------


     .--------------------------------------------------.
     | HF-SCF KT IPs [a.u. & eV] from Koopmans' theorem |
     `--------------------------------------------------'


     HF-SCF KT symmetry 1 ( A  ) in point group C1  -- 19 principal poles with pole strength 1

   ============  ============  ============  ============  ============
      20.593753     11.303330     11.229037     11.228177     11.212814
     560.384530    307.579245    305.557627    305.534250    305.116187
   ============  ============  ============  ============  ============

   ============  ============  ============  ============  ============
       1.409413      1.079458      0.986950      0.837645      0.741641
      38.352089     29.373542     26.856265     22.793475     20.181085
   ============  ============  ============  ============  ============

   ============  ============  ============  ============  ============
       0.731305      0.628801      0.615546      0.577192      0.548765
      19.899812     17.110546     16.749863     15.706191     14.932655
   ============  ============  ============  ============  ============

   ============  ============  ============  ============
       0.524235      0.474221      0.416391      0.295927
      14.265168     12.904215     11.330570      8.052586
   ============  ============  ============  ============

@ Summary of HF-SCF KT ionization potentials [eV]:

@ Symmetry 1 (A  ) :   560.385     307.579     305.558     305.534     305.116
@                       38.352      29.374      26.856      22.793      20.181
@                       19.900      17.111      16.750      15.706      14.933
@                       14.265      12.904      11.331       8.053

  === End of HF-SCF KT output ===
--------------------------------------------------------------------------------


 CPU and wall time for SCF :       0.270       0.586


                       .-----------------------------------.
                       | --- Final results from SIRIUS --- |
                       `-----------------------------------'


@    Spin multiplicity:           1
@    Spatial symmetry:            1 ( irrep  A   in C1  )
@    Total charge of molecule:    0

@    Final HF energy:            -229.676351733536                 
@    Nuclear repulsion:           159.519327029616
@    Electronic energy:          -389.195678763152

@    Final gradient norm:           0.000006093199

 
     Date and time (Linux)  : Tue Mar 26 11:14:10 2024
     Host name              : node103                                 

File label for MO orbitals:  26Mar24   FOCKDIIS

 (Only coefficients > 0.0100 are printed.)

 Molecular orbitals for symmetry species 1  (A  )
 ------------------------------------------------

    Orbital        10       11       12       13       14       15       16
   1 C   :1s    -0.0035  -0.0449  -0.0200  -0.0142   0.0019   0.0069   0.0270
   2 C   :1s    -0.0012   0.1014   0.0426   0.0260  -0.0061  -0.0316  -0.0553
   3 C   :1s    -0.0081   0.0159   0.0260   0.0940   0.0133   0.1063  -0.1272
   4 C   :2px    0.0948  -0.2346   0.1686   0.2257  -0.0200  -0.0554  -0.1065
   5 C   :2py   -0.2648  -0.1527  -0.0265   0.0432  -0.0334  -0.2239   0.0893
   6 C   :2pz   -0.0164   0.0226  -0.0158  -0.0131  -0.2248   0.0365   0.0159
   7 C   :2px   -0.0392  -0.1274   0.0212   0.1220  -0.0086   0.0308  -0.0399
   8 C   :2py   -0.0708  -0.1254  -0.0140   0.0655   0.0029  -0.0230   0.0327
   9 C   :2pz    0.0039   0.0125  -0.0004  -0.0059  -0.1393   0.0204   0.0069
  10 C   :1s    -0.0279   0.0614   0.0134   0.0132   0.0038   0.0323  -0.0170
  11 C   :1s     0.0494  -0.1307  -0.0271  -0.0228  -0.0078  -0.0649   0.0314
  12 C   :1s     0.1081  -0.0261  -0.0229  -0.1299  -0.0225  -0.1720   0.0787
  13 C   :2px    0.0143   0.0900  -0.2395  -0.1974  -0.0018   0.1256   0.1427
  14 C   :2py   -0.1583   0.0471   0.1284  -0.1722  -0.0265  -0.1313  -0.2219
  15 C   :2pz   -0.0067  -0.0043   0.0262   0.0240  -0.1137  -0.0012  -0.0392
  16 C   :2px   -0.0268  -0.0584  -0.1144  -0.0165   0.0039   0.0939   0.0594
  17 C   :2py   -0.0604   0.0511   0.0722  -0.0755  -0.0152  -0.0778  -0.1490
  18 C   :2pz    0.0005   0.0074   0.0122   0.0044  -0.0551  -0.0038  -0.0206
  19 C   :1s     0.0353  -0.0788  -0.0358  -0.0055  -0.0032  -0.0123   0.0117
  20 C   :1s    -0.0697   0.1637   0.0802   0.0059   0.0068   0.0207  -0.0239
  21 C   :1s    -0.0773   0.1234   0.0601   0.0337   0.0086   0.0579  -0.0349
  22 C   :2px    0.0115   0.1390  -0.2014   0.2148   0.0001   0.0196  -0.1816
  23 C   :2py    0.0433   0.0241   0.1399   0.1986   0.0317   0.0879   0.2588
  24 C   :2pz   -0.0038   0.0008  -0.0012   0.0074  -0.0431  -0.0001  -0.0292
  25 C   :2px    0.0124   0.1027  -0.0511   0.0638  -0.0012  -0.0056  -0.1176
  26 C   :2py   -0.0022  -0.0226   0.0439   0.0620   0.0086   0.0288   0.0828
  27 C   :2pz   -0.0018   0.0002  -0.0000   0.0041  -0.0247   0.0021  -0.0144
  28 C   :1s    -0.0420   0.0524   0.0193   0.0141   0.0021   0.0011  -0.0207
  29 C   :1s     0.0847  -0.1063  -0.0349  -0.0288  -0.0033  -0.0009   0.0477
  30 C   :1s     0.1018  -0.0733  -0.0685  -0.0638  -0.0129  -0.0260   0.0178
  31 C   :2px    0.0009   0.1228   0.0049   0.2668  -0.0010  -0.1402   0.1749
  32 C   :2py    0.0727  -0.0957  -0.2919   0.0195  -0.0417  -0.1720  -0.2269
  33 C   :2pz   -0.0039   0.0052   0.0122   0.0105  -0.0205   0.0041   0.0031
  34 C   :2px    0.0070   0.0362  -0.0102   0.1190  -0.0003  -0.0730   0.0900
  35 C   :2py    0.0179  -0.0527  -0.1008   0.0093  -0.0197  -0.0765  -0.0715
  36 C   :2pz   -0.0010   0.0030   0.0050   0.0061  -0.0162   0.0038  -0.0011
  37 O   :1s     0.0203   0.0386   0.0130  -0.0295  -0.0109  -0.0421   0.0012
  38 O   :1s    -0.0477  -0.0950  -0.0285   0.0720   0.0270   0.1039  -0.0075
  39 O   :1s    -0.0868  -0.1209  -0.0616   0.1035   0.0391   0.1531   0.0133
  40 O   :2px   -0.3892   0.0372  -0.1855  -0.0172  -0.0786   0.0892   0.0999
  41 O   :2py   -0.0635  -0.2127   0.0162   0.2100   0.0770   0.3709  -0.1647
  42 O   :2pz    0.0613  -0.0117   0.0463   0.0294  -0.5368   0.0911   0.0100
  43 O   :2px   -0.2175   0.0375  -0.1141  -0.0220  -0.0611   0.0479   0.0735
  44 O   :2py   -0.0383  -0.1243   0.0127   0.1375   0.0555   0.2769  -0.1275
  45 O   :2pz    0.0345  -0.0088   0.0299   0.0215  -0.3890   0.0704   0.0087
  46 H   :1s     0.2139   0.0055   0.0989  -0.0240  -0.0241  -0.1212  -0.0144
  47 H   :1s     0.0835  -0.0018   0.0526  -0.0064  -0.0117  -0.0605  -0.0200
  48 H   :1s     0.1195   0.1614   0.0105  -0.0534   0.0234   0.1558  -0.0844
  49 H   :1s     0.0738   0.0656   0.0004  -0.0246   0.0242   0.1529  -0.0656
  50 H   :1s     0.0922  -0.0460  -0.1683  -0.0118   0.0147   0.0845   0.2117
  51 H   :1s     0.0579   0.0050  -0.1056  -0.0174   0.0108   0.0664   0.1581
  52 H   :1s    -0.0286   0.1440  -0.0840   0.1312   0.0029   0.0277  -0.1518
  53 H   :1s    -0.0155   0.0590  -0.0742   0.0971   0.0023   0.0235  -0.1097
  54 H   :1s     0.0360  -0.1201  -0.0473  -0.1585  -0.0004   0.0863  -0.1131
  55 H   :1s     0.0206  -0.0697  -0.0348  -0.0816   0.0070   0.0794  -0.0908
  56 H   :1s     0.0696  -0.0568  -0.1625   0.0802  -0.0250  -0.1500  -0.0385
  57 H   :1s     0.0372  -0.0234  -0.1118   0.0578  -0.0170  -0.1141  -0.0454

    Orbital        17       18       19       20       21       22       23
   1 C   :1s    -0.0107  -0.0036   0.0013  -0.0032   0.0243  -0.0273  -0.0001
   2 C   :1s     0.0326   0.0089  -0.0040   0.0050  -0.0210   0.0378   0.0128
   3 C   :1s    -0.0620   0.0118  -0.0006   0.0606  -0.4845   0.4027  -0.0324
   4 C   :2px    0.0882  -0.0041  -0.0403   0.0427  -0.0197  -0.0303  -0.0007
   5 C   :2py    0.1615   0.0085   0.0095  -0.0121   0.1910  -0.0368   0.0314
   6 C   :2pz   -0.0047  -0.1474  -0.2961   0.3210   0.0141  -0.0324  -0.2460
   7 C   :2px    0.0216  -0.0015  -0.0247   0.0709   0.0454  -0.1797   0.0376
   8 C   :2py    0.0359   0.0001   0.0139  -0.0239   0.4637  -0.0402   0.0548
   9 C   :2pz   -0.0017  -0.1004  -0.2421   0.5253   0.0243  -0.0466  -0.5903
  10 C   :1s     0.0127   0.0010   0.0001  -0.0008   0.0168  -0.0435   0.0113
  11 C   :1s    -0.0336  -0.0021   0.0008   0.0054  -0.0291   0.0336   0.0001
  12 C   :1s     0.0228  -0.0069  -0.0067  -0.0066  -0.2087   0.8450  -0.2851
  13 C   :2px   -0.1228  -0.0410  -0.0215  -0.0217  -0.0250   0.1349   0.0113
  14 C   :2py   -0.2111   0.0206   0.0073   0.0080   0.0577  -0.1191   0.0104
  15 C   :2pz    0.0099  -0.2799  -0.2615  -0.1976   0.0029   0.0189   0.3182
  16 C   :2px   -0.0773  -0.0298  -0.0201  -0.0032  -0.0850   0.3859   0.0370
  17 C   :2py   -0.0766   0.0236   0.0068   0.0228   0.1710  -0.4098   0.0693
  18 C   :2pz    0.0071  -0.2078  -0.2596  -0.3439   0.0128   0.0166   0.8042
  19 C   :1s     0.0074   0.0002  -0.0001   0.0001   0.0263  -0.0419   0.0068
  20 C   :1s    -0.0178  -0.0009   0.0004  -0.0032  -0.0405   0.0322   0.0012
  21 C   :1s    -0.0146  -0.0032  -0.0004   0.0149  -0.3797   0.7789  -0.1565
  22 C   :2px    0.2335   0.0243   0.0009   0.0064  -0.0107   0.1872  -0.0117
  23 C   :2py    0.1224  -0.0195   0.0033  -0.0056   0.0424   0.0041  -0.0159
  24 C   :2pz    0.0043  -0.3131   0.2171  -0.2184  -0.0025  -0.0324  -0.3222
  25 C   :2px    0.1749   0.0238   0.0025  -0.0022  -0.0579   0.5088  -0.0168
  26 C   :2py    0.0615  -0.0108   0.0020   0.0224   0.0312   0.0639  -0.1177
  27 C   :2pz    0.0025  -0.2198   0.2205  -0.3780  -0.0077  -0.0542  -0.7906
  28 C   :1s    -0.0035   0.0028   0.0017   0.0027   0.0149  -0.0222  -0.0140
  29 C   :1s     0.0048  -0.0077  -0.0053  -0.0026  -0.0324   0.0256   0.0189
  30 C   :1s     0.0426  -0.0009   0.0027  -0.0561  -0.1310   0.2839   0.2640
  31 C   :2px   -0.2539  -0.0011  -0.0116  -0.0114   0.0225   0.0958  -0.0170
  32 C   :2py   -0.0984   0.0090   0.0165   0.0142  -0.0132   0.0668   0.0001
  33 C   :2pz   -0.0043  -0.2304   0.2972   0.2885  -0.0037   0.0213   0.1832
  34 C   :2px   -0.1756  -0.0025  -0.0129  -0.0224   0.0639   0.1822  -0.0373
  35 C   :2py   -0.0642  -0.0028   0.0083   0.0341  -0.1333   0.2597   0.0037
  36 C   :2pz   -0.0046  -0.1694   0.2653   0.5206   0.0024   0.0537   0.5542
  37 O   :1s     0.0218   0.0006   0.0019   0.0001   0.0679   0.0287  -0.0030
  38 O   :1s    -0.0567  -0.0015  -0.0045  -0.0004  -0.0981  -0.0251   0.0018
  39 O   :1s    -0.0678  -0.0018  -0.0103  -0.0016  -0.8649  -0.5021   0.0649
  40 O   :2px   -0.0160   0.0319   0.0304  -0.0241   0.1454   0.1144   0.0026
  41 O   :2py   -0.2309   0.0051  -0.0073   0.0007   0.1192   0.0777  -0.0091
  42 O   :2pz   -0.0130   0.2293   0.2030  -0.1477  -0.0313  -0.0043   0.1024
  43 O   :2px   -0.0025   0.0289   0.0325  -0.0321   0.3142   0.2043   0.0049
  44 O   :2py   -0.1895   0.0023  -0.0057   0.0056   0.2241   0.1898  -0.0307
  45 O   :2pz   -0.0126   0.2024   0.2125  -0.2025  -0.0694  -0.0132   0.1664
  46 H   :1s     0.0630   0.0042   0.0067  -0.0043   0.0908   0.0131   0.0066
  47 H   :1s     0.0353   0.0048   0.0081  -0.0035   1.2269   0.6851  -0.0530
  48 H   :1s    -0.1376   0.0015   0.0025  -0.0033   0.0080  -0.0287   0.0038
  49 H   :1s    -0.1411  -0.0015   0.0075  -0.0253   0.7744  -0.4604   0.1199
  50 H   :1s     0.0477  -0.0163   0.0066  -0.0085   0.0518  -0.0187  -0.0079
  51 H   :1s     0.0550  -0.0121   0.0094  -0.0258   0.4679  -1.1324   0.2091
  52 H   :1s     0.1685   0.0158   0.0076   0.0072   0.0162  -0.0391  -0.0044
  53 H   :1s     0.1327   0.0114   0.0089   0.0181   0.2683  -1.1473   0.1038
  54 H   :1s     0.1734   0.0031   0.0009   0.0019  -0.0053   0.0225  -0.0056
  55 H   :1s     0.1032   0.0022  -0.0049   0.0098   0.1150   0.2202  -0.1701
  56 H   :1s    -0.1668   0.0029   0.0016   0.0011   0.0158  -0.0313   0.0018
  57 H   :1s    -0.1366   0.0058   0.0044   0.0084   0.1637  -0.6693  -0.0684

    Orbital        24       25       26       27       28       29
   1 C   :1s     0.0799   0.0701  -0.0338  -0.0036  -0.0449  -0.0296
   2 C   :1s    -0.0581  -0.0960   0.0542   0.0297   0.0350   0.0546
   3 C   :1s    -1.6282  -1.1594   0.2024  -0.2672   0.5537   1.0627
   4 C   :2px    0.1367   0.0520  -0.0363   0.0821  -0.1043   0.1780
   5 C   :2py    0.1718   0.0422   0.0317  -0.0680   0.2120  -0.0018
   6 C   :2pz    0.0118  -0.0213   0.0003  -0.0120   0.0249   0.0003
   7 C   :2px    0.3976   0.0286  -0.2035   0.4643  -1.1251   1.5649
   8 C   :2py    0.7321   0.5517  -0.3376  -0.4838   0.9406   0.1260
   9 C   :2pz    0.0412  -0.0416   0.0007  -0.0421   0.1742  -0.1257
  10 C   :1s    -0.0017  -0.0548   0.0540   0.0649  -0.0304   0.0417
  11 C   :1s     0.0448   0.0547  -0.0736  -0.0949  -0.0527  -0.0197
  12 C   :1s    -0.3889   1.1078  -0.7694  -0.9753   1.6230  -2.0096
  13 C   :2px   -0.0736   0.0439  -0.0780  -0.0472   0.0293   0.0871
  14 C   :2py    0.0459  -0.1048   0.1454  -0.1013  -0.0000  -0.0199
  15 C   :2pz   -0.0180   0.0256   0.0271  -0.0049  -0.0043  -0.0176
  16 C   :2px   -0.3982   0.2356  -0.7844  -0.5142   0.1677   0.8692
  17 C   :2py   -0.2656  -0.7474   0.8127   0.0375   0.4241   0.4884
  18 C   :2pz   -0.0522   0.0355   0.1107   0.0117  -0.0346  -0.1886
  19 C   :1s    -0.0273  -0.0201  -0.0570  -0.0823   0.0417   0.0647
  20 C   :1s     0.0062   0.0021   0.0747   0.1018  -0.0594  -0.0216
  21 C   :1s     0.9105   0.6504   0.8204   1.4080  -0.9812  -3.0857
  22 C   :2px    0.1122   0.0217   0.1170   0.0481   0.1969   0.0937
  23 C   :2py   -0.0113   0.0393   0.0311  -0.1034   0.1024  -0.1558
  24 C   :2pz    0.0217  -0.0307  -0.0043   0.0087   0.0048   0.0256
  25 C   :2px    0.3255  -0.0397   0.7752   0.8351   1.4052   1.0065
  26 C   :2py   -0.2949   0.4594  -0.0323  -0.3017   0.3478  -2.0814
  27 C   :2pz    0.0494  -0.0724  -0.0374   0.0271   0.0380   0.1570
  28 C   :1s    -0.0488   0.0946   0.0718   0.0089  -0.0299  -0.0589
  29 C   :1s     0.0415  -0.0826  -0.0880  -0.0142   0.0074  -0.0007
  30 C   :1s     0.9742  -1.9647  -0.9318   0.1119   0.8022   2.5078
  31 C   :2px    0.0233  -0.0045   0.1511  -0.2264  -0.1311   0.0883
  32 C   :2py    0.1350  -0.1501   0.0042  -0.0670  -0.0499  -0.1018
  33 C   :2pz   -0.0130   0.0228   0.0095  -0.0107  -0.0050   0.0079
  34 C   :2px    0.0873  -0.1595   0.4517  -1.3232  -0.9014   1.2626
  35 C   :2py    0.4913  -0.3579  -0.0286  -0.4807  -0.9508  -2.3362
  36 C   :2pz   -0.0387   0.0457   0.0385  -0.0222  -0.0010   0.0746
  37 O   :1s    -0.0368  -0.0184   0.0168  -0.0170   0.0428  -0.0061
  38 O   :1s     0.0712   0.0331  -0.0650   0.0225  -0.0495  -0.0262
  39 O   :1s     0.4274   0.2008   0.0226   0.2924  -0.8169   0.3861
  40 O   :2px    0.0118   0.0370  -0.0991   0.1129  -0.2515   0.0154
  41 O   :2py   -0.0842  -0.1228  -0.0205   0.0114   0.1377  -0.1212
  42 O   :2pz   -0.0139   0.0121   0.0254  -0.0294   0.0340  -0.0044
  43 O   :2px   -0.0317  -0.0053  -0.1753   0.3812  -0.7148   0.0846
  44 O   :2py   -0.2651  -0.2061   0.0098  -0.0792   0.3837  -0.2547
  45 O   :2pz   -0.0160   0.0196   0.0364  -0.0713   0.1048  -0.0330
  46 H   :1s    -0.0095  -0.0007   0.0094   0.0199  -0.0212   0.0677
  47 H   :1s    -0.3589  -0.2676  -0.2587   0.4915  -0.6907   0.1194
  48 H   :1s     0.0164  -0.0007  -0.0065  -0.0297   0.0127   0.0179
  49 H   :1s     1.7729   1.1119  -0.4567  -0.3151   0.4372   0.3261
  50 H   :1s    -0.0204  -0.0036   0.0184  -0.0184   0.0878  -0.0920
  51 H   :1s     0.2041  -1.1906   1.6314   0.5684  -0.1362  -0.0115
  52 H   :1s     0.0055   0.0013  -0.0336   0.0335   0.0299  -0.0777
  53 H   :1s    -0.7403  -0.2107  -1.3245  -1.2792  -1.0342  -0.3689
  54 H   :1s    -0.0038   0.0500   0.0350  -0.0367   0.0249   0.0781
  55 H   :1s    -0.3441   0.8012   1.2455  -1.4171  -1.1105   0.7191
  56 H   :1s    -0.0209  -0.0088  -0.0030   0.0260  -0.0132   0.0814
  57 H   :1s    -1.0265   1.3429   0.1085   1.3506   0.9157   0.4049

  Total CPU  time used in SIRIUS :   0.29 seconds
  Total wall time used in SIRIUS :   0.65 seconds

 
     Date and time (Linux)  : Tue Mar 26 11:14:10 2024
     Host name              : node103                                 


                     .---------------------------------------.
                     | End of Wave Function Section (SIRIUS) |
                     `---------------------------------------'


 Center of mass dipole origin  :  -14.376497    6.572673    0.193564

 Center of mass gauge origin   :  -14.376497    6.572673    0.193564


                 .------------------------------------------------.
                 | Starting in Static Property Section (ABACUS) - |
                 `------------------------------------------------'


 
     Date and time (Linux)  : Tue Mar 26 11:14:10 2024
     Host name              : node103                                 
  Total CPU  time used in TWOINT:   0.47 seconds
  Total wall time used in TWOINT:   0.47 seconds


   ***************************************************************************
   ************************ FINAL RESULTS from ABACUS ************************
   ***************************************************************************


 
     Date and time (Linux)  : Tue Mar 26 11:14:11 2024
     Host name              : node103                                 


                             Molecular geometry (au)
                             -----------------------

 C        -15.5731763043            4.4718290049            0.2939091042
 C        -13.1220314448            5.0407877466            0.0450888653
 C        -11.8912528196            7.4808210165            0.0309159194
 C        -12.9835712116            9.7589236547           -0.0713371612
 O        -17.4846342797            6.1830138056            0.5694500705
 H        -19.0497432510            5.2617534224            0.8532113454
 H        -16.2360355372            2.5339526583            0.2932288028
 H        -11.8153425212            3.4599562540           -0.1396129661
 H         -9.8347016723            7.4038902659            0.0730568120
 H        -15.0170299057           10.0019235371           -0.1309958150
 H        -11.8425167828           11.4617180714           -0.0892328676





                        Molecular wave function and energy
                        ----------------------------------

     Spatial symmetry   1 ( A   )
     Spin multiplicity  1
     2 * M_S            0
     State number       1
     Total charge       0

     Total energy       -229.6763517335 au (Hartrees)
                         -6249.81145096 eV
                           -603015.1685 kJ/mol
                           -144124.0843 kcal/mol


                   Scalar Breit-Pauli relativistic corrections
                   -------------------------------------------

     Darwin correction:                          0.4325268554 au
     Mass-velocity correction:                  -0.5422127479 au

     Total relativistic correction:             -0.1096858924 au ( 0.0478%)
     Non-relativistic + relativistic energy:  -229.7860376260 au



      (Note that these corrections are NOT included in the results below.)


                             Molecular gradient (au)
                             -----------------------

 C         -0.0238670367            0.0137539844            0.0037401428
 C          0.0095863978            0.0217522624           -0.0024361757
 C         -0.0059781784           -0.0236524258            0.0021945219
 C          0.0006853258            0.0003090895           -0.0010811929
 O          0.0268403318            0.0115058954           -0.0048885025
 H         -0.0139276947           -0.0226130628            0.0028239151
 H         -0.0088054312           -0.0049493554            0.0009658165
 H          0.0115193892           -0.0045894494           -0.0009121546
 H          0.0092597841           -0.0000432082            0.0000037430
 H         -0.0098995084            0.0016895027           -0.0002203020
 H          0.0045866208            0.0068367670           -0.0001898118





                                  Dipole moment
                                  -------------

                 au               Debye          C m (/(10**-30)
              0.972613           2.472137           8.246160


                             Dipole moment components
                             ------------------------

                 au               Debye          C m (/(10**-30)

      x     -0.44556787        -1.13252050        -3.77768175
      y     -0.86097321        -2.18837547        -7.29963484
      z      0.07855724         0.19967258         0.66603605


   Units:   1 a.u. =   2.54175 Debye 
            1 a.u. =   8.47835 (10**-30) C m (SI)




   Interatomic separations (in Angstrom):
   --------------------------------------

            C           C           C           C           O           H     
            ------      ------      ------      ------      ------      ------
 C     :    0.000000
 C     :    1.338069    0.000000
 C     :    2.520115    1.446192    0.000000
 C     :    3.121375    2.498565    1.338030    0.000000
 O     :    1.365415    2.402484    3.051854    3.060882    0.000000
 H     :    1.909686    3.167984    3.989744    4.025845    0.972709    0.000000
 H     :    1.083812    2.119539    3.486850    4.197267    2.046140    2.094862
 H     :    2.072129    1.089717    2.130042    3.390305    3.349265    3.980057
 H     :    3.412100    2.142454    1.089269    2.082190    4.107807    5.023405
 H     :    2.949744    2.811863    2.126783    1.084176    2.434432    3.334264
 H     :    4.197652    3.465345    2.107717    1.084727    4.103498    5.055564

            H           H           H           H           H     
            ------      ------      ------      ------      ------
 H     :    0.000000
 H     :    2.401052    0.000000
 H     :    4.257882    2.338148    0.000000
 H     :    4.010470    3.854220    3.069590    0.000000
 H     :    5.269348    4.234458    2.397332    1.849115    0.000000


  Max    interatomic separation is    5.2693 Angstrom (    9.9576 Bohr)
  between atoms   11 and    7, "H     " and "H     ".

  Min HX interatomic separation is    0.9727 Angstrom (    1.8382 Bohr)

  Min YX interatomic separation is    1.3380 Angstrom (    2.5285 Bohr)


  Bond distances (Angstrom):
  --------------------------

                  atom 1     atom 2       distance
                  ------     ------       --------
  bond distance:  C          C            1.338069
  bond distance:  C          C            1.446192
  bond distance:  C          C            1.338030
  bond distance:  O          C            1.365415
  bond distance:  H          O            0.972709
  bond distance:  H          C            1.083812
  bond distance:  H          C            1.089717
  bond distance:  H          C            1.089269
  bond distance:  H          C            1.084176
  bond distance:  H          C            1.084727


  Bond angles (degrees):
  ----------------------

                  atom 1     atom 2     atom 3         angle
                  ------     ------     ------         -----
  bond angle:     C          C          O            125.408
  bond angle:     C          C          H            121.776
  bond angle:     O          C          H            112.816
  bond angle:     C          C          C            129.641
  bond angle:     C          C          H            116.821
  bond angle:     C          C          H            113.526
  bond angle:     C          C          C            127.595
  bond angle:     C          C          H            114.612
  bond angle:     C          C          H            117.782
  bond angle:     C          C          H            122.466
  bond angle:     C          C          H            120.551
  bond angle:     H          C          H            116.982
  bond angle:     C          O          H            108.353


  Total CPU  time used in ABACUS:   0.50 seconds
  Total wall time used in ABACUS:   0.50 seconds


                   .-------------------------------------------.
                   | End of Static Property Section (ABACUS) - |
                   `-------------------------------------------'


Building simple model Hessian by Roland Lindh ...

Initial model Hessian in internal coordinates has been calculated


           :::::::::::::::::::::::::::::::::::::::::::::::::::::::::::
           ::::::::::::::: Optimization Control Center :::::::::::::::
           :::::::::::::::::::::::::::::::::::::::::::::::::::::::::::



                                Next geometry (au)
                                ------------------

 C        -15.5261275633            4.4387652321            0.3145026819
 C        -13.0971684498            4.9936978620            0.0669233807
 C        -11.9013819544            7.4789443482           -0.0088940422
 C        -13.0317969968            9.7273135632           -0.0487803453
 O        -17.4125111705            6.2270506119            0.5032183887
 H        -19.0317097587            5.4743011191            0.8019276890
 H        -16.1654916298            2.5093712597            0.3288813030
 H        -11.8371978056            3.4047857110           -0.1290350902
 H         -9.8621961777            7.4377323266            0.0185178402
 H        -15.0513417796            9.9281243679           -0.0553812137
 H        -11.9331124439           11.4384830360           -0.0641984824





   Interatomic separations (in Angstrom):
   --------------------------------------

            C           C           C           C           O           H     
            ------      ------      ------      ------      ------      ------
 C     :    0.000000
 C     :    1.324962    0.000000
 C     :    2.509330    1.460002    0.000000
 C     :    3.100202    2.505909    1.331866    0.000000
 O     :    1.379116    2.386213    3.002914    2.981631    0.000000
 H     :    1.951439    3.174622    3.942906    3.917726    0.958039    0.000000
 H     :    1.075618    2.093771    3.469780    4.168807    2.077086    2.196550
 H     :    2.040871    1.078090    2.157156    3.405199    3.323681    3.992066
 H     :    3.395056    2.145661    1.079408    2.069420    4.054614    4.979576
 H     :    2.922251    2.809244    2.111602    1.073973    2.341877    3.193305
 H     :    4.168399    3.466312    2.095569    1.076124    4.012852    4.927652

            H           H           H           H           H     
            ------      ------      ------      ------      ------
 H     :    0.000000
 H     :    2.351452    0.000000
 H     :    4.237272    2.377594    0.000000
 H     :    3.975064    3.848472    3.046092    0.000000
 H     :    5.233147    4.251691    2.384326    1.833476    0.000000


  Max    interatomic separation is    5.2331 Angstrom (    9.8892 Bohr)
  between atoms   11 and    7, "H     " and "H     ".

  Min HX interatomic separation is    0.9580 Angstrom (    1.8104 Bohr)

  Min YX interatomic separation is    1.3250 Angstrom (    2.5038 Bohr)


  Bond distances (Angstrom):
  --------------------------

                  atom 1     atom 2       distance
                  ------     ------       --------
  bond distance:  C          C            1.324962
  bond distance:  C          C            1.460002
  bond distance:  C          C            1.331866
  bond distance:  O          C            1.379116
  bond distance:  H          O            0.958039
  bond distance:  H          C            1.075618
  bond distance:  H          C            1.078090
  bond distance:  H          C            1.079408
  bond distance:  H          C            1.073973
  bond distance:  H          C            1.076124


  Bond angles (degrees):
  ----------------------

                  atom 1     atom 2     atom 3         angle
                  ------     ------     ------         -----
  bond angle:     C          C          O            123.866
  bond angle:     C          C          H            121.079
  bond angle:     O          C          H            115.033
  bond angle:     C          C          C            128.522
  bond angle:     C          C          H            115.888
  bond angle:     C          C          H            115.584
  bond angle:     C          C          C            127.623
  bond angle:     C          C          H            114.501
  bond angle:     C          C          H            117.857
  bond angle:     C          C          H            122.369
  bond angle:     C          C          H            120.608
  bond angle:     H          C          H            117.022
  bond angle:     C          O          H            111.963




                             Optimization information
                             ------------------------

 Iteration number               :       0
 End of optimization            :       F 
 Energy at this geometry is     :    -229.676351733536
 Norm of gradient               :       0.063620189316
 Norm of step                   :       0.338518354863
 Updated trust radius           :       0.500000000000
 Total effective Hessian index  :       0




 **************************************************************************************
 ****************** Output of molecule and basis set info suppressed ******************
 **************************************************************************************



                     .---------------------------------------.
                     | Starting in Integral Section (HERMIT) |
                     `---------------------------------------'



 ***************************************************************************************
 ****************** Output from **INTEGRALS input processing (HERMIT) ******************
 ***************************************************************************************


 - Using defaults, no **INTEGRALS input found

 Default print level:       -1

 Calculation of one- and two-electron Hamiltonian integrals.

 Center of mass  (bohr):    -14.358937393941      6.564261299530      0.183343427148
 Operator center (bohr):      0.000000000000      0.000000000000      0.000000000000
 Gauge origin    (bohr):      0.000000000000      0.000000000000      0.000000000000
 Dipole origin   (bohr):      0.000000000000      0.000000000000      0.000000000000


                      Nuclear contribution to dipole moments
                      --------------------------------------

                 au               Debye          C m (/(10**-30)

      x   -544.51998875     -1384.03167087     -4616.63272019
      y    249.84152875       635.03378321      2118.24469316
      z      6.86896921        17.45917712        58.23754618


  Total CPU  time used in HERMIT:   0.02 seconds
  Total wall time used in HERMIT:   0.02 seconds


                        .----------------------------------.
                        | End of Integral Section (HERMIT) |
                        `----------------------------------'



                   .--------------------------------------------.
                   | Starting in Wave Function Section (SIRIUS) |
                   `--------------------------------------------'

* Read MO coefficients from SIRIUS.RST with label "NEWORB  " and header info: 26Mar24  FOCKDIIS

 **********************************************************************
 *SIRIUS* a direct, restricted step, second order MCSCF program       *
 **********************************************************************

 (Wave function specification suppressed here, see output above for initial geometry.)


 ***********************************************
 ***** DIIS acceleration of SCF iterations *****
 ***********************************************

 C1-DIIS algorithm; max error vectors =    8

 Iter      Total energy        Error norm    Delta(E)  DIIS dim.
 -----------------------------------------------------------------------------

Calculating AOSUPINT

---> (Re)generating AOTWOINT

 Threshold for neglecting two-electron integrals:  1.00D-12
 HERMIT - Number of two-electron integrals written:     1304966 ( 95.5% )
 HERMIT - Megabytes written:                             14.943

  Total CPU  time used in TWOINT:   0.17 seconds
  Total wall time used in TWOINT:   0.18 seconds
  Time used in TWOINT     is       0.17 seconds
  CPU  time used in MAKE_AOTWOINT is   0.18 seconds
  WALL time used in MAKE_AOTWOINT is   0.18 seconds
     (Precalculated AO two-electron integrals are transformed to P-supermatrix elements.
      Threshold for discarding integrals :  1.00D-12 )

@  1    -229.677059763        1.57082D-01   -7.08D-04    1
      Virial theorem: -V/T =      1.999524
@    MULPOP   C       0.18; C      -0.24; C      -0.16; C      -0.36; O      -0.74; H       0.42; H       0.18; H       0.18; H       0.17; H       0.21; 
@             H       0.15; 
 -----------------------------------------------------------------------------
@  2    -229.679541381        4.40692D-02   -2.48D-03    2
      Virial theorem: -V/T =      1.999291
@    MULPOP   C       0.17; C      -0.23; C      -0.15; C      -0.36; O      -0.74; H       0.42; H       0.18; H       0.18; H       0.17; H       0.21; 
@             H       0.15; 
 -----------------------------------------------------------------------------
@  3    -229.679805474        1.12449D-02   -2.64D-04    3
      Virial theorem: -V/T =      1.999388
@    MULPOP   C       0.18; C      -0.23; C      -0.16; C      -0.35; O      -0.75; H       0.42; H       0.18; H       0.18; H       0.17; H       0.21; 
@             H       0.15; 
 -----------------------------------------------------------------------------
@  4    -229.679820227        4.32693D-03   -1.48D-05    4
      Virial theorem: -V/T =      1.999348
@    MULPOP   C       0.17; C      -0.23; C      -0.16; C      -0.36; O      -0.75; H       0.42; H       0.18; H       0.18; H       0.17; H       0.21; 
@             H       0.15; 
 -----------------------------------------------------------------------------
@  5    -229.679823245        1.56311D-03   -3.02D-06    5
      Virial theorem: -V/T =      1.999352
@    MULPOP   C       0.18; C      -0.23; C      -0.16; C      -0.35; O      -0.75; H       0.42; H       0.18; H       0.18; H       0.17; H       0.21; 
@             H       0.15; 
 -----------------------------------------------------------------------------
@  6    -229.679823597        4.93191D-04   -3.52D-07    6
      Virial theorem: -V/T =      1.999355
@    MULPOP   C       0.18; C      -0.23; C      -0.16; C      -0.36; O      -0.75; H       0.42; H       0.18; H       0.18; H       0.17; H       0.21; 
@             H       0.15; 
 -----------------------------------------------------------------------------
@  7    -229.679823648        1.37775D-04   -5.14D-08    7
      Virial theorem: -V/T =      1.999355
@    MULPOP   C       0.18; C      -0.23; C      -0.16; C      -0.36; O      -0.75; H       0.42; H       0.18; H       0.18; H       0.17; H       0.21; 
@             H       0.15; 
 -----------------------------------------------------------------------------
@  8    -229.679823652        6.98719D-05   -3.34D-09    8
      Virial theorem: -V/T =      1.999354
@    MULPOP   C       0.18; C      -0.23; C      -0.16; C      -0.36; O      -0.75; H       0.42; H       0.18; H       0.18; H       0.17; H       0.21; 
@             H       0.15; 
 -----------------------------------------------------------------------------
@  9    -229.679823652        1.51959D-05   -6.38D-10    8
      Virial theorem: -V/T =      1.999355
@    MULPOP   C       0.18; C      -0.23; C      -0.16; C      -0.36; O      -0.75; H       0.42; H       0.18; H       0.18; H       0.17; H       0.21; 
@             H       0.15; 
 -----------------------------------------------------------------------------
@ 10    -229.679823652        5.15559D-06   -4.81D-11    8

@ *** DIIS converged in  10 iterations !
@     Converged SCF energy, gradient:   -229.679823652349    5.16D-06
    - total time used in SIRFCK :              0.00 seconds


 *** SCF orbital energy analysis ***

 Only the 20 lowest virtual orbital energies printed in each symmetry.

 Number of electrons        :   38
 Closed shell orbitals      :   19

 Sym       Hartree-Fock orbital energies

1 A     -20.58829027   -11.29952845   -11.22684525   -11.22605045   -11.20871199
         -1.40148839    -1.08083510    -0.99225136    -0.83602568    -0.74463443
         -0.73092404    -0.62917863    -0.61173158    -0.57284242    -0.55032486
         -0.52837723    -0.47130801    -0.41534577    -0.29946060     0.13628533
          0.20188167     0.26277849     0.28816511     0.29425117     0.32781191
          0.34706196     0.36330376     0.43765439     0.51534464     0.57512304
          0.59235581     0.70669585     0.75845440     0.78917316     0.83266241
          0.84186593     0.87178173     0.90318277     0.95281567

    E(LUMO) :     0.13628533 au (symmetry 1)
  - E(HOMO) :    -0.29946060 au (symmetry 1)
  ------------------------------------------
    gap     :     0.43574593 au

 --- Writing SIRIFC interface file

--------------------------------------------------------------------------------


     .--------------------------------------------------.
     | HF-SCF KT IPs [a.u. & eV] from Koopmans' theorem |
     `--------------------------------------------------'


     HF-SCF KT symmetry 1 ( A  ) in point group C1  -- 19 principal poles with pole strength 1

   ============  ============  ============  ============  ============
      20.588290     11.299528     11.226845     11.226050     11.208712
     560.235877    307.475810    305.498000    305.476372    305.004569
   ============  ============  ============  ============  ============

   ============  ============  ============  ============  ============
       1.401488      1.080835      0.992251      0.836026      0.744634
      38.136439     29.411019     27.000533     22.749416     20.262534
   ============  ============  ============  ============  ============

   ============  ============  ============  ============  ============
       0.730924      0.629179      0.611732      0.572842      0.550325
      19.889455     17.120821     16.646063     15.587835     14.975101
   ============  ============  ============  ============  ============

   ============  ============  ============  ============
       0.528377      0.471308      0.415346      0.299461
      14.377876     12.824943     11.302133      8.148737
   ============  ============  ============  ============

@ Summary of HF-SCF KT ionization potentials [eV]:

@ Symmetry 1 (A  ) :   560.236     307.476     305.498     305.476     305.005
@                       38.136      29.411      27.001      22.749      20.263
@                       19.889      17.121      16.646      15.588      14.975
@                       14.378      12.825      11.302       8.149

  === End of HF-SCF KT output ===
--------------------------------------------------------------------------------


 CPU and wall time for SCF :       0.264       0.535


                       .-----------------------------------.
                       | --- Final results from SIRIUS --- |
                       `-----------------------------------'


@    Spin multiplicity:           1
@    Spatial symmetry:            1 ( irrep  A   in C1  )
@    Total charge of molecule:    0

@    Final HF energy:            -229.679823652349                 
@    Nuclear repulsion:           160.255920409806
@    Electronic energy:          -389.935744062155

@    Final gradient norm:           0.000005155593

 
     Date and time (Linux)  : Tue Mar 26 11:14:11 2024
     Host name              : node103                                 

  Total CPU  time used in SIRIUS :   0.27 seconds
  Total wall time used in SIRIUS :   0.56 seconds

 
     Date and time (Linux)  : Tue Mar 26 11:14:11 2024
     Host name              : node103                                 


                     .---------------------------------------.
                     | End of Wave Function Section (SIRIUS) |
                     `---------------------------------------'

 Trust radius increased due to good ratio.
 Updated trust radius   0.50000

 Center of mass dipole origin  :  -14.358937    6.564261    0.183343

 Center of mass gauge origin   :  -14.358937    6.564261    0.183343


                 .------------------------------------------------.
                 | Starting in Static Property Section (ABACUS) - |
                 `------------------------------------------------'


 
     Date and time (Linux)  : Tue Mar 26 11:14:11 2024
     Host name              : node103                                 


   ***************************************************************************
   ************************ FINAL RESULTS from ABACUS ************************
   ***************************************************************************


 
     Date and time (Linux)  : Tue Mar 26 11:14:12 2024
     Host name              : node103                                 
  Total CPU  time used in ABACUS:   0.50 seconds
  Total wall time used in ABACUS:   0.50 seconds


                   .-------------------------------------------.
                   | End of Static Property Section (ABACUS) - |
                   `-------------------------------------------'



           :::::::::::::::::::::::::::::::::::::::::::::::::::::::::::
           ::::::::::::::: Optimization Control Center :::::::::::::::
           :::::::::::::::::::::::::::::::::::::::::::::::::::::::::::



                                Next geometry (au)
                                ------------------

 C        -15.5249369343            4.4066159250            0.2306294522
 C        -13.1013166799            4.9815544174            0.0350523558
[...]
     560.153679    307.474127    305.480808    305.453713    304.964284
   ============  ============  ============  ============  ============

   ============  ============  ============  ============  ============
       1.401438      1.079824      0.993596      0.837325      0.748318
      38.135056     29.383515     27.037116     22.784767     20.362777
   ============  ============  ============  ============  ============

   ============  ============  ============  ============  ============
       0.730858      0.629174      0.611017      0.571264      0.549699
      19.887663     17.120698     16.626632     15.544893     14.958073
   ============  ============  ============  ============  ============

   ============  ============  ============  ============
       0.528878      0.470683      0.414764      0.299167
      14.391491     12.807935     11.286305      8.140753
   ============  ============  ============  ============

@ Summary of HF-SCF KT ionization potentials [eV]:

@ Symmetry 1 (A  ) :   560.154     307.474     305.481     305.454     304.964
@                       38.135      29.384      27.037      22.785      20.363
@                       19.888      17.121      16.627      15.545      14.958
@                       14.391      12.808      11.286       8.141

  === End of HF-SCF KT output ===
--------------------------------------------------------------------------------


 CPU and wall time for SCF :       0.249       0.413


                       .-----------------------------------.
                       | --- Final results from SIRIUS --- |
                       `-----------------------------------'


@    Spin multiplicity:           1
@    Spatial symmetry:            1 ( irrep  A   in C1  )
@    Total charge of molecule:    0

@    Final HF energy:            -229.680389259404                 
@    Nuclear repulsion:           160.337901990518
@    Electronic energy:          -390.018291249922

@    Final gradient norm:           0.000005018825

 
     Date and time (Linux)  : Tue Mar 26 11:14:26 2024
     Host name              : node103                                 

  Total CPU  time used in SIRIUS :   0.26 seconds
  Total wall time used in SIRIUS :   0.45 seconds

 
     Date and time (Linux)  : Tue Mar 26 11:14:26 2024
     Host name              : node103                                 


                     .---------------------------------------.
                     | End of Wave Function Section (SIRIUS) |
                     `---------------------------------------'

 Trust radius increased due to good ratio.
 Updated trust radius   0.02652

 Center of mass dipole origin  :  -14.357651    6.555639    0.182206

 Center of mass gauge origin   :  -14.357651    6.555639    0.182206


                 .------------------------------------------------.
                 | Starting in Static Property Section (ABACUS) - |
                 `------------------------------------------------'


 
     Date and time (Linux)  : Tue Mar 26 11:14:26 2024
     Host name              : node103                                 


   ***************************************************************************
   ************************ FINAL RESULTS from ABACUS ************************
   ***************************************************************************


 
     Date and time (Linux)  : Tue Mar 26 11:14:26 2024
     Host name              : node103                                 
  Total CPU  time used in ABACUS:   0.50 seconds
  Total wall time used in ABACUS:   0.51 seconds


                   .-------------------------------------------.
                   | End of Static Property Section (ABACUS) - |
                   `-------------------------------------------'



            *********************************************************
            *** Output from geometry convergence control (MINEND) ***
            *********************************************************


 Energy converged       yes 
 Gradient converged     yes 
 Step converged         no  
 Conditions fullfilled   2
 Required conditions     2
 Totally sym. index      0
 Hessian index           0
 End of optimization    yes 


           :::::::::::::::::::::::::::::::::::::::::::::::::::::::::::
           ::::::::::::::: Optimization Control Center :::::::::::::::
           :::::::::::::::::::::::::::::::::::::::::::::::::::::::::::



                               Final geometry (au)
                               -------------------

 C        -15.5205783621            4.4066444231            0.3168473811
 C        -13.0947682960            4.9861395123            0.0973368950
 C        -11.9135763465            7.4877208720           -0.0444121200
 C        -13.0373249554            9.7346736901            0.0187239024
 O        -17.3993318580            6.2040232270            0.4504145701
 H        -19.0572765370            5.5435541124            0.6090462751
 H        -16.1430055647            2.4790129571            0.4012609367
 H        -11.8208911268            3.4078007490            0.0122129098
 H         -9.8873543435            7.4350399139           -0.2198791303
 H        -15.0406326615            9.9397344342            0.1894119086
 H        -11.9352956789           11.4342255465           -0.1032814187





                             Optimization information
                             ------------------------

 Iteration number               :      13
 End of optimization            :       T 
 Energy at this geometry is     :    -229.680389259404
 Energy change from last geom.  :      -0.000000106496
 Predicted change               :      -0.000000096591
 Ratio, actual/predicted change :       1.102540731066
 Norm of gradient               :       0.000073365456
 Norm of step                   :       0.003461915360
 Updated trust radius           :       0.026517997206
 Total effective Hessian index  :       0




          <<<<<<<<<<<<<<<<<<<<<<<<<<<<<<<<<<<<<<<<<<<<<<<<<<<<<<<<<<<<<<
          <<<<<<<<<<<<<<<<<<<<  End of Optimization <<<<<<<<<<<<<<<<<<<<
          <<<<<<<<<<<<<<<<<<<<<<<<<<<<<<<<<<<<<<<<<<<<<<<<<<<<<<<<<<<<<<



                              Final geometry (bohr)
                              ---------------------

 C        -15.5205783621            4.4066444231            0.3168473811
 C        -13.0947682960            4.9861395123            0.0973368950
 C        -11.9135763465            7.4877208720           -0.0444121200
 C        -13.0373249554            9.7346736901            0.0187239024
 O        -17.3993318580            6.2040232270            0.4504145701
 H        -19.0572765370            5.5435541124            0.6090462751
 H        -16.1430055647            2.4790129571            0.4012609367
 H        -11.8208911268            3.4078007490            0.0122129098
 H         -9.8873543435            7.4350399139           -0.2198791303
 H        -15.0406326615            9.9397344342            0.1894119086
 H        -11.9352956789           11.4342255465           -0.1032814187





                      Final geometry (xyz format; angstrom)
                      -------------------------------------

11

C       -8.2131363676            2.3318958048            0.1676684134
C       -6.9294529629            2.6385513998            0.0515084666
C       -6.3043931017            3.9623312463           -0.0235018818
C       -6.8990552562            5.1513674714            0.0099082625
O       -9.2073299024            3.2830277070            0.2383491259
H      -10.0846764433            2.9335225031            0.3222934091
H       -8.5425106586            1.3118371622            0.2123381433
H       -6.2553461956            1.8033304953            0.0064627935
H       -5.2321625937            3.9344536838           -0.1163550249
H       -7.9591600405            5.2598809440            0.1002324655
H       -6.3158864774            6.0507315823           -0.0546541731



@ Iter     Energy        Change       GradNorm  Index   StepLen    TrustRad #Rej
@ ------------------------------------------------------------------------------
@   0     -229.676352     0.000000     0.063620    0    0.338518*   0.500000   0 
@   1     -229.679824    -0.003472     0.020442    0    0.141349*   0.500000   1 
@   2     -229.680167    -0.000344     0.009860    0    0.128017*   0.141349   0 
@   3     -229.680208    -0.000041     0.010144    0    0.089612    0.089612   0 
@   4     -229.680330    -0.000122     0.005892    0    0.034807*   0.089612   1 
@   5     -229.680359    -0.000029     0.002400    0    0.034807    0.034807   0 
@   6     -229.680368    -0.000008     0.001652    0    0.027399*   0.034807   0 
@   7     -229.680376    -0.000008     0.000686    0    0.034807    0.034807   0 
@   8     -229.680380    -0.000005     0.000734    0    0.041768    0.041769   0 
@   9     -229.680385    -0.000005     0.000935    0    0.041645*   0.050122   0 
@  10     -229.680387    -0.000002     0.000976    0    0.037883*   0.050122   0 
@  11     -229.680388    -0.000001     0.000731    0    0.019587*   0.026518   0 
@  12     -229.680389    -0.000001     0.000271    0    0.003413*   0.026518   0 
@  13     -229.680389    -0.000000     0.000073    0    0.003462*   0.026518   0 

@  *) Newton step taken.


   Interatomic separations (in Angstrom):
   --------------------------------------

            C           C           C           C           O           H     
            ------      ------      ------      ------      ------      ------
 C     :    0.000000
 C     :    1.324905    0.000000
 C     :    2.517572    1.465851    0.000000
 C     :    3.114662    2.513344    1.329867    0.000000
 O     :    1.377704    2.374654    2.992835    2.978424    0.000000
 H     :    1.971935    3.180529    3.933010    3.894176    0.948123    0.000000
 H     :    1.072848    2.094753    3.477055    4.181377    2.080445    2.240587
 H     :    2.034284    1.074264    2.159766    3.409358    3.310209    4.005103
 H     :    3.396331    2.142040    1.076604    2.067693    4.043776    4.974049
 H     :    2.939753    2.816743    2.106466    1.069465    2.341998    3.158967
 H     :    4.180756    3.468531    2.088664    1.073830    4.013288    4.905391

            H           H           H           H           H     
            ------      ------      ------      ------      ------
 H     :    0.000000
 H     :    2.348419    0.000000
 H     :    4.236102    2.367208    0.000000
 H     :    3.992482    3.854804    3.039767    0.000000
 H     :    5.242734    4.248272    2.378423    1.830241    0.000000


  Max    interatomic separation is    5.2427 Angstrom (    9.9073 Bohr)
  between atoms   11 and    7, "H     " and "H     ".

  Min HX interatomic separation is    0.9481 Angstrom (    1.7917 Bohr)

  Min YX interatomic separation is    1.3249 Angstrom (    2.5037 Bohr)


  Bond distances (Angstrom):
  --------------------------

                  atom 1     atom 2       distance
                  ------     ------       --------
  bond distance:  C          C            1.324905
  bond distance:  C          C            1.465851
  bond distance:  C          C            1.329867
  bond distance:  O          C            1.377704
  bond distance:  H          O            0.948123
  bond distance:  H          C            1.072848
  bond distance:  H          C            1.074264
  bond distance:  H          C            1.076604
  bond distance:  H          C            1.069465
  bond distance:  H          C            1.073830


  Bond angles (degrees):
  ----------------------

                  atom 1     atom 2     atom 3         angle
                  ------     ------     ------         -----
  bond angle:     C          C          O            122.949
  bond angle:     C          C          H            121.411
  bond angle:     O          C          H            115.640
  bond angle:     C          C          C            128.804
  bond angle:     C          C          H            115.576
  bond angle:     C          C          H            115.620
  bond angle:     C          C          C            127.987
  bond angle:     C          C          H            113.936
  bond angle:     C          C          H            118.077
  bond angle:     C          C          H            122.418
  bond angle:     C          C          H            120.297
  bond angle:     H          C          H            117.285
  bond angle:     C          O          H            114.697



@ Geometry converged in 14 iterations!

@ Energy at final geometry is       :    -229.680389 a.u.
@ Energy change during optimization :      -0.004038 a.u.
@                                            -10.601 kJ/mol
 

 Center of mass dipole origin  :  -14.357651    6.555639    0.182206

 Center of mass gauge origin   :  -14.357651    6.555639    0.182206


                 .------------------------------------------------.
                 | Starting in Static Property Section (ABACUS) - |
                 `------------------------------------------------'


 
     Date and time (Linux)  : Tue Mar 26 11:14:26 2024
     Host name              : node103                                 


   ***************************************************************************
   ************************ FINAL RESULTS from ABACUS ************************
   ***************************************************************************


 
     Date and time (Linux)  : Tue Mar 26 11:14:26 2024
     Host name              : node103                                 


                             Molecular geometry (au)
                             -----------------------

 C        -15.5205783621            4.4066444231            0.3168473811
 C        -13.0947682960            4.9861395123            0.0973368950
 C        -11.9135763465            7.4877208720           -0.0444121200
 C        -13.0373249554            9.7346736901            0.0187239024
 O        -17.3993318580            6.2040232270            0.4504145701
 H        -19.0572765370            5.5435541124            0.6090462751
 H        -16.1430055647            2.4790129571            0.4012609367
 H        -11.8208911268            3.4078007490            0.0122129098
 H         -9.8873543435            7.4350399139           -0.2198791303
 H        -15.0406326615            9.9397344342            0.1894119086
 H        -11.9352956789           11.4342255465           -0.1032814187





                        Molecular wave function and energy
                        ----------------------------------

     Spatial symmetry   1 ( A   )
     Spin multiplicity  1
     2 * M_S            0
     State number       1
     Total charge       0

     Total energy       -229.6803892594 au (Hartrees)
                         -6249.92131763 eV
                           -603025.7690 kJ/mol
                           -144126.6178 kcal/mol


                   Scalar Breit-Pauli relativistic corrections
                   -------------------------------------------

     Darwin correction:                          0.4325008503 au
     Mass-velocity correction:                  -0.5421862183 au

     Total relativistic correction:             -0.1096853679 au ( 0.0478%)
     Non-relativistic + relativistic energy:  -229.7900746273 au



      (Note that these corrections are NOT included in the results below.)


                                  Dipole moment
                                  -------------

                 au               Debye          C m (/(10**-30)
              0.948208           2.410105           8.039244


                             Dipole moment components
                             ------------------------

                 au               Debye          C m (/(10**-30)

      x     -0.49829001        -1.26652679        -4.22467862
      y     -0.80462187        -2.04514466        -6.82186828
      z      0.05822026         0.14798113         0.49361193


   Units:   1 a.u. =   2.54175 Debye 
            1 a.u. =   8.47835 (10**-30) C m (SI)




   Interatomic separations (in Angstrom):
   --------------------------------------

            C           C           C           C           O           H     
            ------      ------      ------      ------      ------      ------
 C     :    0.000000
 C     :    1.324905    0.000000
 C     :    2.517572    1.465851    0.000000
 C     :    3.114662    2.513344    1.329867    0.000000
 O     :    1.377704    2.374654    2.992835    2.978424    0.000000
 H     :    1.971935    3.180529    3.933010    3.894176    0.948123    0.000000
 H     :    1.072848    2.094753    3.477055    4.181377    2.080445    2.240587
 H     :    2.034284    1.074264    2.159766    3.409358    3.310209    4.005103
 H     :    3.396331    2.142040    1.076604    2.067693    4.043776    4.974049
 H     :    2.939753    2.816743    2.106466    1.069465    2.341998    3.158967
 H     :    4.180756    3.468531    2.088664    1.073830    4.013288    4.905391

            H           H           H           H           H     
            ------      ------      ------      ------      ------
 H     :    0.000000
 H     :    2.348419    0.000000
 H     :    4.236102    2.367208    0.000000
 H     :    3.992482    3.854804    3.039767    0.000000
 H     :    5.242734    4.248272    2.378423    1.830241    0.000000


  Max    interatomic separation is    5.2427 Angstrom (    9.9073 Bohr)
  between atoms   11 and    7, "H     " and "H     ".

  Min HX interatomic separation is    0.9481 Angstrom (    1.7917 Bohr)

  Min YX interatomic separation is    1.3249 Angstrom (    2.5037 Bohr)


  Bond distances (Angstrom):
  --------------------------

                  atom 1     atom 2       distance
                  ------     ------       --------
  bond distance:  C          C            1.324905
  bond distance:  C          C            1.465851
  bond distance:  C          C            1.329867
  bond distance:  O          C            1.377704
  bond distance:  H          O            0.948123
  bond distance:  H          C            1.072848
  bond distance:  H          C            1.074264
  bond distance:  H          C            1.076604
  bond distance:  H          C            1.069465
  bond distance:  H          C            1.073830


  Bond angles (degrees):
  ----------------------

                  atom 1     atom 2     atom 3         angle
                  ------     ------     ------         -----
  bond angle:     C          C          O            122.949
  bond angle:     C          C          H            121.411
  bond angle:     O          C          H            115.640
  bond angle:     C          C          C            128.804
  bond angle:     C          C          H            115.576
  bond angle:     C          C          H            115.620
  bond angle:     C          C          C            127.987
  bond angle:     C          C          H            113.936
  bond angle:     C          C          H            118.077
  bond angle:     C          C          H            122.418
  bond angle:     C          C          H            120.297
  bond angle:     H          C          H            117.285
  bond angle:     C          O          H            114.697


  Total CPU  time used in ABACUS:   0.01 seconds
  Total wall time used in ABACUS:   0.01 seconds


                   .-------------------------------------------.
                   | End of Static Property Section (ABACUS) - |
                   `-------------------------------------------'

  Total CPU  time used in DALTON:  12.05 seconds
  Total wall time used in DALTON:  17.25 seconds

 
     Date and time (Linux)  : Tue Mar 26 11:14:26 2024
     Host name              : node103                                 
