[Molden Format]
[GTO]
    1 0
 s  10 1.00
    3047.5249000    0.0018347000
     457.3695100    0.0140373000
     103.9486900    0.0688426000
      29.2101550    0.2321844000
       9.2866630    0.4679413000
       3.1639270    0.3623120000
       7.8682724    0.0000000000
       1.8812885    0.0000000000
       0.5442493    0.0000000000
       0.1687144    0.0000000000
 s  10 1.00
    3047.5249000    0.0000000000
     457.3695100    0.0000000000
     103.9486900    0.0000000000
      29.2101550    0.0000000000
       9.2866630    0.0000000000
       3.1639270    0.0000000000
       7.8682724   -0.1193324000
       1.8812885   -0.1608542000
       0.5442493    1.1434564000
       0.1687144    0.0000000000
 s  10 1.00
    3047.5249000    0.0000000000
     457.3695100    0.0000000000
     103.9486900    0.0000000000
      29.2101550    0.0000000000
       9.2866630    0.0000000000
       3.1639270    0.0000000000
       7.8682724    0.0000000000
       1.8812885    0.0000000000
       0.5442493    0.0000000000
       0.1687144    1.0000000000
 p   4 1.00
       7.8682724    0.0689991000
       1.8812885    0.3164240000
       0.5442493    0.7443083000
       0.1687144    0.0000000000
 p   4 1.00
       7.8682724    0.0000000000
       1.8812885    0.0000000000
       0.5442493    0.0000000000
       0.1687144    1.0000000000

    2 0
 s  10 1.00
    3047.5249000    0.0018347000
     457.3695100    0.0140373000
     103.9486900    0.0688426000
      29.2101550    0.2321844000
       9.2866630    0.4679413000
       3.1639270    0.3623120000
       7.8682724    0.0000000000
       1.8812885    0.0000000000
       0.5442493    0.0000000000
       0.1687144    0.0000000000
 s  10 1.00
    3047.5249000    0.0000000000
     457.3695100    0.0000000000
     103.9486900    0.0000000000
      29.2101550    0.0000000000
       9.2866630    0.0000000000
       3.1639270    0.0000000000
       7.8682724   -0.1193324000
       1.8812885   -0.1608542000
       0.5442493    1.1434564000
       0.1687144    0.0000000000
 s  10 1.00
    3047.5249000    0.0000000000
     457.3695100    0.0000000000
     103.9486900    0.0000000000
      29.2101550    0.0000000000
       9.2866630    0.0000000000
       3.1639270    0.0000000000
       7.8682724    0.0000000000
       1.8812885    0.0000000000
       0.5442493    0.0000000000
       0.1687144    1.0000000000
 p   4 1.00
       7.8682724    0.0689991000
       1.8812885    0.3164240000
       0.5442493    0.7443083000
       0.1687144    0.0000000000
 p   4 1.00
       7.8682724    0.0000000000
       1.8812885    0.0000000000
       0.5442493    0.0000000000
       0.1687144    1.0000000000

    3 0
 s  10 1.00
    3047.5249000    0.0018347000
     457.3695100    0.0140373000
     103.9486900    0.0688426000
      29.2101550    0.2321844000
       9.2866630    0.4679413000
       3.1639270    0.3623120000
       7.8682724    0.0000000000
       1.8812885    0.0000000000
       0.5442493    0.0000000000
       0.1687144    0.0000000000
 s  10 1.00
    3047.5249000    0.0000000000
     457.3695100    0.0000000000
     103.9486900    0.0000000000
      29.2101550    0.0000000000
       9.2866630    0.0000000000
       3.1639270    0.0000000000
       7.8682724   -0.1193324000
       1.8812885   -0.1608542000
       0.5442493    1.1434564000
       0.1687144    0.0000000000
 s  10 1.00
    3047.5249000    0.0000000000
     457.3695100    0.0000000000
     103.9486900    0.0000000000
      29.2101550    0.0000000000
       9.2866630    0.0000000000
       3.1639270    0.0000000000
       7.8682724    0.0000000000
       1.8812885    0.0000000000
       0.5442493    0.0000000000
       0.1687144    1.0000000000
 p   4 1.00
       7.8682724    0.0689991000
       1.8812885    0.3164240000
       0.5442493    0.7443083000
       0.1687144    0.0000000000
 p   4 1.00
       7.8682724    0.0000000000
       1.8812885    0.0000000000
       0.5442493    0.0000000000
       0.1687144    1.0000000000

    4 0
 s  10 1.00
    3047.5249000    0.0018347000
     457.3695100    0.0140373000
     103.9486900    0.0688426000
      29.2101550    0.2321844000
       9.2866630    0.4679413000
       3.1639270    0.3623120000
       7.8682724    0.0000000000
       1.8812885    0.0000000000
       0.5442493    0.0000000000
       0.1687144    0.0000000000
 s  10 1.00
    3047.5249000    0.0000000000
     457.3695100    0.0000000000
     103.9486900    0.0000000000
      29.2101550    0.0000000000
       9.2866630    0.0000000000
       3.1639270    0.0000000000
       7.8682724   -0.1193324000
       1.8812885   -0.1608542000
       0.5442493    1.1434564000
       0.1687144    0.0000000000
 s  10 1.00
    3047.5249000    0.0000000000
     457.3695100    0.0000000000
     103.9486900    0.0000000000
      29.2101550    0.0000000000
       9.2866630    0.0000000000
       3.1639270    0.0000000000
       7.8682724    0.0000000000
       1.8812885    0.0000000000
       0.5442493    0.0000000000
       0.1687144    1.0000000000
 p   4 1.00
       7.8682724    0.0689991000
       1.8812885    0.3164240000
       0.5442493    0.7443083000
       0.1687144    0.0000000000
 p   4 1.00
       7.8682724    0.0000000000
       1.8812885    0.0000000000
       0.5442493    0.0000000000
       0.1687144    1.0000000000

    5 0
 s   4 1.00
      18.7311370    0.0334946000
       2.8253937    0.2347269500
       0.6401217    0.8137573300
       0.1612778    0.0000000000
 s   4 1.00
      18.7311370    0.0000000000
       2.8253937    0.0000000000
       0.6401217    0.0000000000
       0.1612778    1.0000000000

    6 0
 s   4 1.00
      18.7311370    0.0334946000
       2.8253937    0.2347269500
       0.6401217    0.8137573300
       0.1612778    0.0000000000
 s   4 1.00
      18.7311370    0.0000000000
       2.8253937    0.0000000000
       0.6401217    0.0000000000
       0.1612778    1.0000000000

    7 0
 s   4 1.00
      18.7311370    0.0334946000
       2.8253937    0.2347269500
       0.6401217    0.8137573300
       0.1612778    0.0000000000
 s   4 1.00
      18.7311370    0.0000000000
       2.8253937    0.0000000000
       0.6401217    0.0000000000
       0.1612778    1.0000000000

    8 0
 s   4 1.00
      18.7311370    0.0334946000
       2.8253937    0.2347269500
       0.6401217    0.8137573300
       0.1612778    0.0000000000
 s   4 1.00
      18.7311370    0.0000000000
       2.8253937    0.0000000000
       0.6401217    0.0000000000
       0.1612778    1.0000000000

    9 0
 s  10 1.00
    5484.6717000    0.0018311000
     825.2349500    0.0139501000
     188.0469600    0.0684451000
      52.9645000    0.2327143000
      16.8975700    0.4701930000
       5.7996353    0.3585209000
      15.5396160    0.0000000000
       3.5999336    0.0000000000
       1.0137618    0.0000000000
       0.2700058    0.0000000000
 s  10 1.00
    5484.6717000    0.0000000000
     825.2349500    0.0000000000
     188.0469600    0.0000000000
      52.9645000    0.0000000000
      16.8975700    0.0000000000
       5.7996353    0.0000000000
      15.5396160   -0.1107775000
       3.5999336   -0.1480263000
       1.0137618    1.1307670000
       0.2700058    0.0000000000
 s  10 1.00
    5484.6717000    0.0000000000
     825.2349500    0.0000000000
     188.0469600    0.0000000000
      52.9645000    0.0000000000
      16.8975700    0.0000000000
       5.7996353    0.0000000000
      15.5396160    0.0000000000
       3.5999336    0.0000000000
       1.0137618    0.0000000000
       0.2700058    1.0000000000
 p   4 1.00
      15.5396160    0.0708743000
       3.5999336    0.3397528000
       1.0137618    0.7271586000
       0.2700058    0.0000000000
 p   4 1.00
      15.5396160    0.0000000000
       3.5999336    0.0000000000
       1.0137618    0.0000000000
       0.2700058    1.0000000000

   10 0
 s   4 1.00
      18.7311370    0.0334946000
       2.8253937    0.2347269500
       0.6401217    0.8137573300
       0.1612778    0.0000000000
 s   4 1.00
      18.7311370    0.0000000000
       2.8253937    0.0000000000
       0.6401217    0.0000000000
       0.1612778    1.0000000000

   11 0
 s   4 1.00
      18.7311370    0.0334946000
       2.8253937    0.2347269500
       0.6401217    0.8137573300
       0.1612778    0.0000000000
 s   4 1.00
      18.7311370    0.0000000000
       2.8253937    0.0000000000
       0.6401217    0.0000000000
       0.1612778    1.0000000000

[SCFCONV]
scf-first  1  THROUGH  13
     -228.6561390827
     -229.3184924741
     -229.5432244248
     -229.5553043690
     -229.5571280847
     -229.5574602209
     -229.5575057504
     -229.5575144054
     -229.5575151713
     -229.5575153062
     -229.5575153313
     -229.5575153343
     -229.5575153346
[GEOMETRIES] XYZ
   11

C             -1.9239300000        -0.7762000000        -0.0003800000
C             -0.6510900000        -1.3220800000         0.1178900000
C              0.3856700000        -0.4872000000        -0.2823600000
C              0.5641100000         0.8231300000         0.1457600000
H             -0.3398800000        -2.3181500000         0.4307000000
H              1.1377900000        -0.9437500000        -0.9239300000
H             -0.1243100000         1.3074300000         0.8324000000
H              1.4255800000         1.3973700000        -0.1825400000
O             -2.2398400000         0.4903900000        -0.4779200000
H             -2.8247400000        -1.3182700000         0.2659300000
H             -0.8731500000         0.8190100000        -0.3063900000
   11

C             -1.9239300000        -0.7762000000        -0.0003800000
C             -0.6510900000        -1.3220800000         0.1178900000
C              0.3856700000        -0.4872000000        -0.2823600000
C              0.5641100000         0.8231300000         0.1457600000
H             -0.3398800000        -2.3181500000         0.4307000000
H              1.1377900000        -0.9437500000        -0.9239300000
H             -0.1243100000         1.3074300000         0.8324000000
H              1.4255800000         1.3973700000        -0.1825400000
O             -2.2398400000         0.4903900000        -0.4779200000
H             -2.8247400000        -1.3182700000         0.2659300000
H             -0.8731500000         0.8190100000        -0.3063900000
   11

C             -1.9569269102        -0.7635156832         0.0164232553
C             -0.6824898353        -1.3022766196         0.1283104679
C              0.3841330686        -0.4804677910        -0.2707180551
C              0.5579193673         0.8486008190         0.1267420222
H             -0.4351397950        -2.3101913350         0.4178768975
H              1.1419993995        -0.9223094642        -0.9062116055
H             -0.1006361357         1.2813607232         0.8851234503
H              1.3926393994         1.4337407245        -0.2083823678
O             -2.2728437202         0.4017904735        -0.4230595047
H             -2.8165406472        -1.3850986269         0.2514327663
H             -0.6759041911         0.8700467797        -0.3983773265
   11

C             -1.9315022932        -0.7446656716         0.0575082850
C             -0.6572923510        -1.3382361491         0.1451038522
C              0.4138455325        -0.5384291893        -0.2399095184
C              0.4602431158         0.8595099074         0.0724434929
H             -0.4994513709        -2.3760696539         0.3765139779
H              1.2112417696        -0.9534371485        -0.8417595538
H             -0.1461119436         1.2032302692         0.9118132328
H              1.2660119479         1.4766366223        -0.2611549933
O             -2.1360119136         0.4637145026        -0.3118261549
H             -2.8034311060        -1.3672720187         0.2221490103
H             -0.6413313874         0.9866985295        -0.5117216307
   11

C             -1.9026018163        -0.7462422957         0.0946941899
C             -0.6336439661        -1.3648054721         0.1329145699
C              0.4351699731        -0.5617584090        -0.1773347747
C              0.3807909662         0.8714347539        -0.0014145455
H             -0.5405284988        -2.4288137925         0.2636157175
H              1.2908703156        -0.9848815849        -0.6891262301
H             -0.1652033781         1.2252890343         0.8597822431
H              1.2555748274         1.4262526243        -0.2937805823
O             -2.0178330552         0.4906922913        -0.0844587613
H             -2.7973441474        -1.3538976196         0.1522619528
H             -0.7690412203         1.0984104700        -0.6379937793
   11

C             -1.9218827251        -0.8165546327         0.0816263579
C             -0.6605712412        -1.3911512026         0.0317263975
C              0.4160844403        -0.5244771392        -0.1739327501
C              0.4308456223         0.8674696210        -0.0134070673
H             -0.5569641846        -2.4356469919         0.2474520642
H              1.3175965088        -0.9542584174        -0.5903149526
H             -0.1501151079         1.3812761911         0.7577746373
H              1.3412837143         1.3687144343        -0.2916791696
O             -2.0077013775         0.4921930506         0.1023725811
H             -2.8313421391        -1.3923173401         0.1018604274
H             -0.8410235103         1.0764324269        -0.6343185259
   11

C             -1.9276404299        -0.7910998762         0.0872715914
C             -0.6657871697        -1.3723314992         0.1758648760
C              0.3999602326        -0.5198263544        -0.1473403185
C              0.4475455443         0.8672447947         0.0257175655
H             -0.4652672748        -2.4419841393         0.2123751459
H              1.2387192544        -0.9701968146        -0.6672400651
H             -0.1066433117         1.3472486819         0.8159490644
H              1.3179012573         1.3947206579        -0.3259322706
O             -2.0122605572         0.4918866331        -0.0541733946
H             -2.8404130653        -1.3605926811         0.0817438819
H             -0.8499044801         1.0266105971        -0.5850760762
   11

C             -1.8909076294        -0.7621317235         0.0989503093
C             -0.6505827018        -1.3277310400         0.2595220121
C              0.4459478838        -0.5260988134        -0.1273703844
C              0.4760774869         0.8495635610         0.0195200435
H             -0.5243001238        -2.3983062127         0.1070184311
H              1.2565451208        -1.0360242706        -0.6213989934
H             -0.0804485388         1.3676353335         0.7849337339
H              1.3009007987         1.4147438303        -0.3810846921
O             -2.0525841264         0.5266981466        -0.1019887370
H             -2.7780886374        -1.3714248137         0.0366260078
H             -0.9663495325         0.9347560026        -0.4555677308
   11

C             -1.8999633533        -0.7807647456         0.1287704977
C             -0.6336632590        -1.3300750848         0.2780247286
C              0.4503646674        -0.5143680450        -0.0920443977
C              0.4512650932         0.8808035795        -0.0549352850
H             -0.6028973127        -2.3862980393         0.0523591002
H              1.2955231988        -1.0283756629        -0.5235798615
H              0.0428004126         1.3650027528         0.8392108031
H              1.3106377233         1.3931796961        -0.4543032215
O             -2.0976863966         0.4955590804        -0.0982448613
H             -2.7538065851        -1.4240285357        -0.0205669824
H             -1.0263641885         1.0010450047        -0.4355305202
   11

C             -1.8957739149        -0.7518269074         0.1112294763
C             -0.6354037640        -1.3360266644         0.2323379977
C              0.4628215452        -0.5404219995        -0.1150712187
C              0.4140176985         0.8657192403        -0.0474260649
H             -0.5802587912        -2.4006256468         0.0851117614
H              1.3261032176        -1.0323383348        -0.5300076971
H             -0.0107718277         1.3429797897         0.8267100779
H              1.2540958199         1.4225205318        -0.4267274486
O             -2.0725635777         0.5160037877        -0.0604853771
H             -2.7706866371        -1.3722435136         0.0085099982
H             -0.9553697686         0.9579397171        -0.4650215050
   11

C             -1.8989105567        -0.7688213025         0.0523343478
C             -0.6520268691        -1.3349440870         0.1930517300
C              0.4445456691        -0.5232976400        -0.1303787750
C              0.4281630773         0.8692784612        -0.0358327074
H             -0.5526484657        -2.4089108076         0.1780806728
H              1.3045671105        -1.0199920360        -0.5467977860
H             -0.0043287428         1.2750035682         0.8693769651
H              1.2385550417         1.4351846050        -0.4548615379
O             -2.0385118822         0.5052628768        -0.1005636767
H             -2.7915167090        -1.3734219625         0.0317162048
H             -0.9416776730         1.0163383243        -0.4369654377
   11

C             -1.9052162756        -0.7521009901         0.0716095886
C             -0.6526338094        -1.3345644675         0.1766155198
C              0.4570478967        -0.5355872123        -0.1296224734
C              0.4424622908         0.8603602815        -0.0206381065
H             -0.5525275071        -2.4013317392         0.2081039634
H              1.3138651132        -1.0251610605        -0.5625059742
H              0.0145035083         1.3087243939         0.8664258873
H              1.2300203465         1.4335105527        -0.4749427597
O             -2.0824172501         0.5165906463        -0.0863885781
H             -2.7795059422        -1.3762833943        -0.0265683364
H             -0.9493883710         0.9775229895        -0.4029287308
   11

C             -1.8972707287        -0.7573338709         0.0799090453
C             -0.6495412954        -1.3504180352         0.1631182377
C              0.4510826376        -0.5435382570        -0.1191124633
C              0.3959221585         0.8631823361        -0.0441764401
H             -0.5511462806        -2.4131055989         0.2228422426
H              1.3219918562        -1.0140257357        -0.5442037530
H              0.0115334675         1.3048091333         0.8654147325
H              1.2020145281         1.4184665351        -0.4863142787
O             -2.0286660204         0.5262388766        -0.0259256447
H             -2.7786711325        -1.3577435043        -0.0692835830
H             -0.9410391903         0.9951481208        -0.4231080952
   11

C             -1.9074987523        -0.7629769562         0.0627340826
C             -0.6546793274        -1.3382853044         0.1674754926
C              0.4569295073        -0.5323562924        -0.1133671398
C              0.4173829626         0.8669714042        -0.0478856899
H             -0.5564604420        -2.4029732935         0.2169983529
H              1.3216342036        -1.0163200752        -0.5358455247
H              0.0550852850         1.3186889898         0.8655325090
H              1.2248297661         1.4161910971        -0.4963656171
O             -2.0732033914         0.5133598961        -0.0392198428
H             -2.7804846982        -1.3765705749        -0.0716278883
H             -0.9673251133         0.9859511093        -0.3892687346
   11

C             -1.9014476713        -0.7576944046         0.0620598416
C             -0.6472122649        -1.3378525796         0.1778937033
C              0.4593839263        -0.5352631916        -0.1134961164
C              0.4069442035         0.8705675909        -0.0502855771
H             -0.5713503681        -2.4059479183         0.1932242437
H              1.3264902286        -1.0189314514        -0.5321418017
H              0.0535783451         1.3079068199         0.8751999826
H              1.2155785476         1.4241956412        -0.4907054912
O             -2.0715107970         0.5158631532        -0.0749253645
H             -2.7756976232        -1.3772103748        -0.0355625711
H             -0.9585465264         0.9860467149        -0.3921008492
   11

C             -1.9038265530        -0.7603477645         0.0751962889
C             -0.6486569683        -1.3462260584         0.1785479580
C              0.4521083392        -0.5344492642        -0.1018909355
C              0.4011311087         0.8736956011        -0.0632517977
H             -0.5687941422        -2.4139031394         0.1493856356
H              1.3344645039        -1.0197974926        -0.4872645465
H              0.0562482714         1.3335534673         0.8558864901
H              1.2188301134         1.4112863027        -0.5080087523
O             -2.0610574147         0.5081963959        -0.0349609539
H             -2.7786828343        -1.3729867669        -0.0516770516
H             -0.9655544241         0.9926587190        -0.3928023350
   11

C             -1.9050222097        -0.7624455085         0.0654689899
C             -0.6504078207        -1.3417568491         0.1742607835
C              0.4552769256        -0.5340343743        -0.1020898295
C              0.4067003152         0.8724556597        -0.0574961054
H             -0.5672654600        -2.4089185024         0.1682985423
H              1.3318826503        -1.0177192055        -0.5006969960
H              0.0628811343         1.3286096990         0.8626453439
H              1.2181283026         1.4118581395        -0.5106923261
O             -2.0689501097         0.5126461841        -0.0474529868
H             -2.7793520735        -1.3772300134        -0.0521677451
H             -0.9676616545         0.9882147710        -0.3809176708
   11

C             -1.9040364072        -0.7592166425         0.0663007344
C             -0.6502616511        -1.3403245606         0.1758377943
C              0.4548891559        -0.5323348402        -0.1042955929
C              0.4072995706         0.8728107914        -0.0502204854
H             -0.5683696736        -2.4070560211         0.1927214818
H              1.3218048877        -1.0098017113        -0.5318374458
H              0.0605252868         1.3201985252         0.8721103396
H              1.2224321279         1.4119296854        -0.4968078125
O             -2.0678257169         0.5077246573        -0.0616917248
H             -2.7762152823        -1.3768396987        -0.0513897545
H             -0.9640322979         0.9845898151        -0.3915675343
   11

C             -1.9046519371        -0.7617306761         0.0651279231
C             -0.6505036106        -1.3414135330         0.1745433760
C              0.4551597360        -0.5331763306        -0.1018239576
C              0.4067137219         0.8727619721        -0.0538887584
H             -0.5661840018        -2.4081741200         0.1821924660
H              1.3256781279        -1.0138615993        -0.5172386822
H              0.0628056264         1.3251222442         0.8677867476
H              1.2194734916         1.4115366651        -0.5052172602
O             -2.0689124941         0.5126225861        -0.0549436111
H             -2.7781420454        -1.3773392853        -0.0537401207
H             -0.9652266148         0.9853320768        -0.3836381225
   11

C             -1.9049284032        -0.7609597079         0.0645204723
C             -0.6507682309        -1.3418722290         0.1694721861
C              0.4558653648        -0.5336062973        -0.0998521784
C              0.4061512788         0.8733688963        -0.0576509857
H             -0.5703243474        -2.4087255664         0.1671825990
H              1.3340996642        -1.0170291686        -0.4956777540
H              0.0661272751         1.3305165386         0.8633399784
H              1.2155010460         1.4115788100        -0.5158456743
O             -2.0665924545         0.5089645869        -0.0460711676
H             -2.7793218808        -1.3756179928        -0.0531070861
H             -0.9695993121         0.9850621303        -0.3771503897
   11

C             -1.9052178968        -0.7622397683         0.0653636852
C             -0.6509368115        -1.3421929369         0.1720660587
C              0.4546905917        -0.5329107741        -0.1000996009
C              0.4066040036         0.8734958863        -0.0559688917
H             -0.5667559514        -2.4089197968         0.1737161375
H              1.3292965106        -1.0147163525        -0.5055866378
H              0.0654647781         1.3286346893         0.8654452905
H              1.2185905304         1.4100521938        -0.5112770117
O             -2.0684294109         0.5119986136        -0.0500788459
H             -2.7791152764        -1.3771179323        -0.0541999318
H             -0.9679810673         0.9855961779        -0.3802202521
   11

C             -1.9039988168        -0.7603213411         0.0650744523
C             -0.6500336284        -1.3408602894         0.1735146114
C              0.4564637181        -0.5337932087        -0.1012238725
C              0.4059702223         0.8725083203        -0.0530543730
H             -0.5686249265        -2.4076754106         0.1832038419
H              1.3257228470        -1.0133226380        -0.5205478373
H              0.0601143942         1.3249828360         0.8679252081
H              1.2188073826         1.4124526605        -0.5029634495
O             -2.0674166054         0.5107426880        -0.0564049701
H             -2.7776753775        -1.3762585353        -0.0512073841
H             -0.9631192097         0.9832249183        -0.3851562272
   11

C             -1.9048274753        -0.7617220043         0.0656795496
C             -0.6506383779        -1.3419329425         0.1733184413
C              0.4548663466        -0.5329783472        -0.1004645076
C              0.4064426508         0.8733028791        -0.0545311230
H             -0.5665938843        -2.4086215388         0.1784997781
H              1.3264861776        -1.0138154976        -0.5133797225
H              0.0630979630         1.3267905482         0.8668476051
H              1.2192785378         1.4108864349        -0.5070565652
O             -2.0680156149         0.5118429556        -0.0532584591
H             -2.7785285815        -1.3770221307        -0.0532886235
H             -0.9653577420         0.9849496433        -0.3832063733
   11

C             -1.9048010145        -0.7616302066         0.0654738007
C             -0.6506419747        -1.3418259576         0.1728980877
C              0.4551319938        -0.5331146882        -0.1001995748
C              0.4064156279         0.8732532411        -0.0547110062
H             -0.5669504095        -2.4085380912         0.1775003774
H              1.3272062870        -1.0140539744        -0.5119470197
H              0.0632739497         1.3272665246         0.8665081015
H              1.2188609105         1.4108120400        -0.5079827257
O             -2.0679443515         0.5117241230        -0.0526222544
H             -2.7785897628        -1.3768539815        -0.0533193121
H             -0.9657512559         0.9846409707        -0.3824384744
   11

C             -1.9048053753        -0.7616592493         0.0655665084
C             -0.6506424083        -1.3418692575         0.1730917691
C              0.4550209251        -0.5330428184        -0.1002603392
C              0.4064366064         0.8732845805        -0.0545910697
H             -0.5667894271        -2.4085625773         0.1779933677
H              1.3268009617        -1.0139375789        -0.5127041650
H              0.0631567084         1.3270648581         0.8666785449
H              1.2190314378         1.4108553244        -0.5075612934
O             -2.0679421851         0.5117669440        -0.0529393211
H             -2.7785500402        -1.3769205617        -0.0533213431
H             -0.9655072035         0.9847003362        -0.3827926587
[GEOCONV]
energy
     -229.5575153346
     -229.5575153346
     -229.5702766957
     -229.6103510852
     -229.6226913573
     -229.6055424246
     -229.6113171141
     -229.6226346033
     -229.6195582122
     -229.6217746249
     -229.6229602651
     -229.6242438037
     -229.6241305526
     -229.6251256307
     -229.6253352689
     -229.6252864929
     -229.6254243485
     -229.6253871130
     -229.6254555449
     -229.6254096377
     -229.6254537015
     -229.6254473470
     -229.6254591516
     -229.6254591928
     -229.6254592922
[FREQ]
   3408.55
   3365.16
   3347.06
   3318.81
   3251.93
   1799.79
   1720.61
   1676.24
   1656.92
   1608.70
   1500.83
   1420.07
   1368.72
   1244.71
   1212.61
   1189.52
   1134.66
   1092.55
   1011.80
    939.60
    872.44
    774.82
    579.84
    561.29
    483.18
    347.70
   2251.99

[FR-COORD]
 C        -3.5995604806        -1.4393273818         0.1239027438
 C        -1.2295359569        -2.5357653923         0.3270960380
 C         0.8598649295        -1.0073049396        -0.1894645822
 C         0.7680538733         1.6502686863        -0.1031621705
 H        -1.0710767877        -4.5515236260         0.3363587170
 H         2.5072904400        -1.9160643320        -0.9688704550
 H         0.1193488818         2.5077891318         1.6377850883
 H         2.3036355551         2.6661301651        -0.9591518361
 O        -3.9078443722         0.9670993641        -0.1000408182
 H        -5.2506986005        -2.6020027574        -0.1007627351
 H        -1.8245441863         1.8608139506        -0.7233732875

[FR-NORM-COORD]
Vibration          1
          -0.01743712          -0.00774126          -0.00209968
           0.00777221          -0.08195820           0.00175248
           0.01082109          -0.00226162          -0.00440103