

     ************************************************************************
     *************** Dalton - An Electronic Structure Program ***************
     ************************************************************************

    This is output from DALTON release Dalton2020.0 (2020)
         ( Web site: http://daltonprogram.org )

   ----------------------------------------------------------------------------

    NOTE:
     
    Dalton is an experimental code for the evaluation of molecular
    properties using (MC)SCF, DFT, CI, and CC wave functions.
    The authors accept no responsibility for the performance of
    the code or for the correctness of the results.
     
    The code (in whole or part) is provided under a licence and
    is not to be reproduced for further distribution without
    the written permission of the authors or their representatives.
     
    See the home page "http://daltonprogram.org" for further information.
     
    If results obtained with this code are published,
    the appropriate citations would be both of:
     
       K. Aidas, C. Angeli, K. L. Bak, V. Bakken, R. Bast,
       L. Boman, O. Christiansen, R. Cimiraglia, S. Coriani,
       P. Dahle, E. K. Dalskov, U. Ekstroem,
       T. Enevoldsen, J. J. Eriksen, P. Ettenhuber, B. Fernandez,
       L. Ferrighi, H. Fliegl, L. Frediani, K. Hald, A. Halkier,
       C. Haettig, H. Heiberg, T. Helgaker, A. C. Hennum,
       H. Hettema, E. Hjertenaes, S. Hoest, I.-M. Hoeyvik,
       M. F. Iozzi, B. Jansik, H. J. Aa. Jensen, D. Jonsson,
       P. Joergensen, J. Kauczor, S. Kirpekar,
       T. Kjaergaard, W. Klopper, S. Knecht, R. Kobayashi, H. Koch,
       J. Kongsted, A. Krapp, K. Kristensen, A. Ligabue,
       O. B. Lutnaes, J. I. Melo, K. V. Mikkelsen, R. H. Myhre,
       C. Neiss, C. B. Nielsen, P. Norman, J. Olsen,
       J. M. H. Olsen, A. Osted, M. J. Packer, F. Pawlowski,
       T. B. Pedersen, P. F. Provasi, S. Reine, Z. Rinkevicius,
       T. A. Ruden, K. Ruud, V. Rybkin, P. Salek, C. C. M. Samson,
       A. Sanchez de Meras, T. Saue, S. P. A. Sauer,
       B. Schimmelpfennig, K. Sneskov, A. H. Steindal,
       K. O. Sylvester-Hvid, P. R. Taylor, A. M. Teale,
       E. I. Tellgren, D. P. Tew, A. J. Thorvaldsen, L. Thoegersen,
       O. Vahtras, M. A. Watson, D. J. D. Wilson, M. Ziolkowski
       and H. Agren,
       "The Dalton quantum chemistry program system",
       WIREs Comput. Mol. Sci. 2014, 4:269–284 (doi: 10.1002/wcms.1172)
     
    and
     
       Dalton, a molecular electronic structure program,
       Release Dalton2020.0 (2020), see http://daltonprogram.org
   ----------------------------------------------------------------------------

    Authors in alphabetical order (Major contribution(s) in parenthesis):

  Kestutis Aidas,           Vilnius University,           Lithuania   (QM/MM)
  Celestino Angeli,         University of Ferrara,        Italy       (NEVPT2)
  Keld L. Bak,              UNI-C,                        Denmark     (AOSOPPA, non-adiabatic coupling, magnetic properties)
  Vebjoern Bakken,          University of Oslo,           Norway      (DALTON; geometry optimizer, symmetry detection)
  Radovan Bast,             UiT The Arctic U. of Norway,  Norway      (DALTON installation and execution frameworks)
  Pablo Baudin,             University of Valencia,       Spain       (Cholesky excitation energies)
  Linus Boman,              NTNU,                         Norway      (Cholesky decomposition and subsystems)
  Bruno N. Cabral Tenorio,  Technical Univ. of Denmark,   Denmark     (Lanczos-based CC methods)
  Ove Christiansen,         Aarhus University,            Denmark     (CC module)
  Renzo Cimiraglia,         University of Ferrara,        Italy       (NEVPT2)
  Sonia Coriani,            Technical Univ. of Denmark,   Denmark     (CC and RESPONS modules)
  Janusz Cukras,            University of Warsaw,         Poland      (MChD in RESPONS)
  Paal Dahle,               University of Oslo,           Norway      (Parallelization)
  Erik K. Dalskov,          UNI-C,                        Denmark     (SOPPA)
  Thomas Enevoldsen,        Univ. of Southern Denmark,    Denmark     (SOPPA)
  Janus J. Eriksen,         Aarhus University,            Denmark     (Polarizable embedding, TDA)
  Rasmus Faber,             Technical Univ. of Denmark,   Denmark     (Vib.avg. NMR w. SOPPA, parallel AO-SOPPA, CVS-CC and EOMCC)
  Tobias Fahleson,          KTH Stockholm,                Sweden      (Damped cubic response)
  Berta Fernandez,          U. of Santiago de Compostela, Spain       (Doublet spin, ESR in RESPONS)
  Lara Ferrighi,            Aarhus University,            Denmark     (PCM Cubic response)
  Heike Fliegl,             University of Oslo,           Norway      (CCSD(R12))
  Luca Frediani,            UiT The Arctic U. of Norway,  Norway      (PCM)
  Emmanuel Fromager,        Univ. Strasbourg,             France      (MC-srDFT)
  Bin Gao,                  UiT The Arctic U. of Norway,  Norway      (Gen1Int library)
  Andre S. P. Gomes,        CNRS/Universite de Lille,     France      (Frozen density embedding)
  Christof Haettig,         Ruhr-University Bochum,       Germany     (CC module)
  Kasper Hald,              Aarhus University,            Denmark     (CC module)
  Asger Halkier,            Aarhus University,            Denmark     (CC module)
  Frederik Beyer Hansen,    University of Copenhagen,     Denmark     (Parallel AO-SOPPA)
  Erik D. Hedegaard,        Univ. of Southern Denmark,    Denmark     (Polarizable embedding, QM/MM, and MC-srDFT)
  Hanne Heiberg,            University of Oslo,           Norway      (Geometry analysis, selected one-electron integrals)
  Trygve Helgaker,          University of Oslo,           Norway      (DALTON; ABACUS, ERI, DFT modules, London, and much more)
  Alf Christian Hennum,     University of Oslo,           Norway      (Parity violation)
  Hinne Hettema,            University of Auckland,       New Zealand (Quadratic response in RESPONS; SIRIUS supersymmetry)
  Eirik Hjertenaes,         NTNU,                         Norway      (Cholesky decomposition)
  Pi A. B. Haase,           University of Copenhagen,     Denmark     (Triplet AO-SOPPA)
  Maria Francesca Iozzi,    University of Oslo,           Norway      (RPA)
  Christoph Jacob           TU Braunschweig               Germany     (Frozen density embedding)
  Brano Jansik              Technical Univ. of Ostrava    Czech Rep.  (DFT cubic response)
  Hans Joergen Aa. Jensen,  Univ. of Southern Denmark,    Denmark     (DALTON; SIRIUS, RESPONS, ABACUS, MC-srDFT, and much more)
  Dan Jonsson,              UiT The Arctic U. of Norway,  Norway      (Cubic response in RESPONS module)
  Poul Joergensen,          Aarhus University,            Denmark     (RESPONS, ABACUS, and CC modules)
  Maciej Kaminski,          University of Warsaw,         Poland      (CPPh in RESPONS)
  Joanna Kauczor,           Linkoeping University,        Sweden      (Complex polarization propagator (CPP) module)
  Sheela Kirpekar,          Univ. of Southern Denmark,    Denmark     (Mass-velocity & Darwin integrals)
  Erik Kjellgren,           Univ. of Southern Denmark,    Denmark     (MC-srDFT)
  Wim Klopper,              KIT Karlsruhe,                Germany     (R12 code in CC, SIRIUS, and ABACUS modules)
  Stefan Knecht,            ETH Zurich,                   Switzerland (Parallel CI and MCSCF, MC-srDFT)
  Rika Kobayashi,           Australian National Univ.,    Australia   (DIIS in CC, London in MCSCF)
  Henrik Koch,              NTNU,                         Norway      (CC module, Cholesky decomposition)
  Jacob Kongsted,           Univ. of Southern Denmark,    Denmark     (Polarizable embedding, polarizable density embedding, QM/MM)
  Andrea Ligabue,           University of Modena,         Italy       (CTOCD, AOSOPPA)
  Nanna H. List             Univ. of Southern Denmark,    Denmark     (Polarizable embedding)
  Ola B. Lutnaes,           University of Oslo,           Norway      (DFT Hessian)
  Juan I. Melo,             University of Buenos Aires,   Argentina   (LRESC, Relativistic Effects on NMR Shieldings)
  Kurt V. Mikkelsen,        University of Copenhagen,     Denmark     (MC-SCRF and QM/MM)
  Rolf H. Myhre,            NTNU,                         Norway      (Subsystems and CC3)
  Christian Neiss,          Univ. Erlangen-Nuernberg,     Germany     (CCSD(R12))
  Christian B. Nielsen,     University of Copenhagen,     Denmark     (QM/MM)
  Patrick Norman,           KTH Stockholm,                Sweden      (Cubic response and complex frequency response in RESPONS)
  Jeppe Olsen,              Aarhus University,            Denmark     (SIRIUS CI/density modules)
  Jogvan Magnus H. Olsen,   Aarhus University,            Denmark     (Polarizable embedding and polarizable density embedding)
  Anders Osted,             Copenhagen University,        Denmark     (QM/MM)
  Martin J. Packer,         University of Sheffield,      UK          (SOPPA)
  Filip Pawlowski,          Kazimierz Wielki University,  Poland      (CC3)
  Morten N. Pedersen,       Univ. of Southern Denmark,    Denmark     (Polarizable embedding)
  Thomas B. Pedersen,       University of Oslo,           Norway      (Cholesky decomposition)
  Patricio F. Provasi,      University of Northeastern,   Argentina   (Analysis of coupling constants in localized orbitals)
  Peter Reinholdt,          Univ. of Southern Denmark,    Denmark     (Polarizable embedding and polarizable density embedding)
  Zilvinas Rinkevicius,     KTH Stockholm,                Sweden      (open-shell DFT, ESR)
  Elias Rudberg,            KTH Stockholm,                Sweden      (DFT grid and basis info)
  Torgeir A. Ruden,         University of Oslo,           Norway      (Numerical derivatives in ABACUS)
  Kenneth Ruud,             UiT The Arctic U. of Norway,  Norway      (DALTON; ABACUS magnetic properties and much more)
  Pawel Salek,              KTH Stockholm,                Sweden      (DALTON; DFT code)
  Claire C. M. Samson       University of Karlsruhe       Germany     (Boys localization, r12 integrals in ERI)
  Alfredo Sanchez de Meras, University of Valencia,       Spain       (CC module, Cholesky decomposition)
  Trond Saue,               Paul Sabatier University,     France      (direct Fock matrix construction)
  Stephan P. A. Sauer,      University of Copenhagen,     Denmark     (SOPPA(CCSD), SOPPA prop., AOSOPPA, vibrational g-factors)
  Bernd Schimmelpfennig,    Forschungszentrum Karlsruhe,  Germany     (AMFI module)
  Anna K. Schnack-Petersen, University of Copenhagen,     Denmark     (RPA(D) and HRPA(D) properties in AOSOPPA)
  Kristian Sneskov,         Aarhus University,            Denmark     (Polarizable embedding, QM/MM)
  Arnfinn H. Steindal,      UiT The Arctic U. of Norway,  Norway      (parallel QM/MM, polarizable embedding)
  Casper Steinmann,         Aalborg University,           Denmark     (QFIT, polarizable embedding)
  K. O. Sylvester-Hvid,     University of Copenhagen,     Denmark     (MC-SCRF)
  Peter R. Taylor,          VLSCI/Univ. of Melbourne,     Australia   (Symmetry handling ABACUS, integral transformation)
  Andrew M. Teale,          University of Nottingham,     England     (DFT-AC, DFT-D)
  David P. Tew,             University of Bristol,        England     (CCSD(R12))
  Julien Toulouse,          Sorbonne Univ.,               France      (MC-srDFT)
  Olav Vahtras,             KTH Stockholm,                Sweden      (Triplet response, spin-orbit, ESR, TDDFT, open-shell DFT)
  Lucas Visscher,           Vrije Universiteit Amsterdam, Netherlands (Frozen density embedding)
  David J. Wilson,          La Trobe University,          Australia   (DFT Hessian and DFT magnetizabilities)
  Hans Agren,               KTH Stockholm,                Sweden      (SIRIUS module, RESPONS, MC-SCRF solvation)
 --------------------------------------------------------------------------------

     Date and time (Linux)  : Thu Mar 28 10:17:58 2024
     Host name              : pc-157-10                               

 * Work memory size             :    64000000 =  488.28 megabytes.

 * Directories for basis set searches:
   1) /home/s4925076/Desktop/Sample_inputs_dalton2024_updated/ex3/ts
   2) /opt/netapps/dalton/basis


Compilation information
-----------------------

 Who compiled             | heiko
 Host                     | lwp131
 System                   | Linux-5.4.0-86-generic
 CMake generator          | Unix Makefiles
 Processor                | x86_64
 64-bit integers          | OFF
 MPI                      | OFF
 Fortran compiler         | /usr/bin/gfortran
 Fortran compiler version | GNU Fortran (Ubuntu 9.3.0-17ubuntu1~20.04) 9.3.0
 C compiler               | /usr/bin/gcc
 C compiler version       | gcc (Ubuntu 9.3.0-17ubuntu1~20.04) 9.3.0
 C++ compiler             | /usr/bin/g++
 C++ compiler version     | g++ (Ubuntu 9.3.0-17ubuntu1~20.04) 9.3.0
 BLAS                     | /usr/lib/x86_64-linux-gnu/libblas.so
 LAPACK                   | /usr/lib/x86_64-linux-gnu/liblapack.so
 Static linking           | OFF
 Last Git revision        | 66052b3af5ea7225e31178bf9a8b031913c72190
 Git branch               | (HEAD detached at Dalton2020.0)
 Configuration time       | 2021-10-11 14:10:42.975447


   Content of the .dal input file
 ----------------------------------

**DALTON INPUT
.RUN PROPERTIES
.OPTIMIZE
*OPTIMIZE
.SADDLE
**WAVE FUNCTION
.HF
**PROPERTIES
.VIBANA
**END OF DALTON INPUT



   Content of the .mol file
 ----------------------------

BASIS
6-31G
TS

Atomtypes=4 Angstrom Nosymmetry
Charge=6.0 Atoms=4
C         -1.92393       -0.77620       -0.00038
C         -0.65109       -1.32208        0.11789
C          0.38567       -0.48720       -0.28236
C          0.56411        0.82313        0.14576
Charge=1.0 Atoms=4
H         -0.33988       -2.31815        0.43070
H          1.13779       -0.94375       -0.92393
H         -0.12431        1.30743        0.83240
H          1.42558        1.39737       -0.18254
Charge=8.0 Atoms=1
O         -2.23984        0.49039       -0.47792
Charge=1.0 Atoms=2
H         -2.82474       -1.31827        0.26593
H         -0.87315        0.81901       -0.30639


       *******************************************************************
       *********** Output from DALTON general input processing ***********
       *******************************************************************

 --------------------------------------------------------------------------------
   Overall default print level:    0
   Print level for DALTON.STAT:    1

    HERMIT 1- and 2-electron integral sections will be executed
    "Old" integral transformation used (limited to max 255 basis functions)
    Wave function sections will be executed (SIRIUS module)
    Static molecular property section will be executed (ABACUS module)
 --------------------------------------------------------------------------------


 Chosen parameters for *OPTIMI :
 -------------------------------

 Saddle point optimization has been requested.
 Default 1st order TS-method will be used:   Bofills update.
 Optimization will be performed in redundant internal coordinates (by default).
 No extra (auxiliary) bonds will be added.
 Initial Hessian will be calculated.


 Image function method will be used to control step (default).
 The eigenvector corresponding to the lowest non-zero eigenvalue is chosen
 as reaction mode (default).
 Convergence threshold for gradient set to :      1.00D-04
 Convergence threshold for energy set to   :      1.00D-06
 Convergence threshold for step set to     :      1.00D-04
 Number of convergence criteria set to     :   2


              >>>>>>>>>>>>>>>>>>>>>>>>>>>>>>>>>>>>>>>>>>>>>>>>>>>>>
              >>>>>>>>>> 1st Order Geometry Optimization >>>>>>>>>>
              >>>>>>>>>>>>>>>>>>>>>>>>>>>>>>>>>>>>>>>>>>>>>>>>>>>>>


 Reading .mol file to determine number of atoms for parallel runs.


   ****************************************************************************
   *************** Output of molecule and basis set information ***************
   ****************************************************************************


    The two title cards from your ".mol" input:
    ------------------------------------------------------------------------
 1: TS                                                                      
 2:                                                                         
    ------------------------------------------------------------------------

  Coordinates are entered in Angstrom and converted to atomic units.
          - Conversion factor : 1 bohr = 0.52917721 A

  Atomic type no.    1
  --------------------
  Nuclear charge:   6.00000
  Number of symmetry independent centers:    4
  Number of basis sets to read;    2
  Basis set file used for this atomic type with Z =   6 :
     "/opt/netapps/dalton/basis/6-31G"

  Info about the basis set file: your basis has no documentation.
  Basis set: 6-31G                                                                           

  Atomic type no.    2
  --------------------
  Nuclear charge:   1.00000
  Number of symmetry independent centers:    4
  Number of basis sets to read;    2
  Basis set file used for this atomic type with Z =   1 :
     "/opt/netapps/dalton/basis/6-31G"

  Info about the basis set file: your basis has no documentation.
  Basis set: 6-31G                                                                           

  Atomic type no.    3
  --------------------
  Nuclear charge:   8.00000
  Number of symmetry independent centers:    1
  Number of basis sets to read;    2
  Basis set file used for this atomic type with Z =   8 :
     "/opt/netapps/dalton/basis/6-31G"

  Info about the basis set file: your basis has no documentation.
  Basis set: 6-31G                                                                           

  Atomic type no.    4
  --------------------
  Nuclear charge:   1.00000
  Number of symmetry independent centers:    2
  Number of basis sets to read;    2
  Basis set file used for this atomic type with Z =   1 :
     "/opt/netapps/dalton/basis/6-31G"

  Info about the basis set file: your basis has no documentation.
  Basis set: 6-31G                                                                           


                         SYMGRP: Point group information
                         -------------------------------

@    Point group: C1 


                                 Isotopic Masses
                                 ---------------

                           C          12.000000
                           C          12.000000
                           C          12.000000
                           C          12.000000
                           H           1.007825
                           H           1.007825
                           H           1.007825
                           H           1.007825
                           O          15.994915
                           H           1.007825
                           H           1.007825

                       Total mass:    70.041865 amu
                       Natural abundance:  95.357 %

 Center-of-mass coordinates (a.u.):   -1.536242   -0.387677   -0.209264
 Center-of-mass coordinates (Angs):   -0.812945   -0.205150   -0.110738


  Atoms and basis sets
  --------------------

  Number of atom types :    4
  Total number of atoms:   11

  Basis set used is "6-31G" from the basis set library.

  label    atoms   charge   prim   cont     basis
  ----------------------------------------------------------------------
  C           4    6.0000    22     9      [10s4p|3s2p]                                       
  H           4    1.0000     4     2      [4s|2s]                                            
  O           1    8.0000    22     9      [10s4p|3s2p]                                       
  H           2    1.0000     4     2      [4s|2s]                                            
  ----------------------------------------------------------------------
  total:     11   38.0000   134    57
  ----------------------------------------------------------------------

  Threshold for neglecting AO integrals:  1.00D-12


  Cartesian Coordinates (a.u.)
  ----------------------------

  Total number of coordinates:   33
  C       :     1  x  -3.6357007837    2  y  -1.4668054182    3  z  -0.0007180959
  C       :     4  x  -1.2303817827    5  y  -2.4983691153    6  z   0.2227798129
  C       :     7  x   0.7288106746    8  y  -0.9206745681    9  z  -0.5335830687
  C       :    10  x   1.0660134044   11  y   1.5554902653   12  z   0.2754464800
  H       :    13  x  -0.6422801154   14  y  -4.3806686167   15  z   0.8139050420
  H       :    16  x   2.1501114878   17  y  -1.7834290305   18  z  -1.7459746587
  H       :    19  x  -0.2349118546   20  y   2.4706846276   21  z   1.5730080264
  H       :    22  x   2.6939557693   23  y   2.6406465953   24  z  -0.3449506069
  O       :    25  x  -4.2326841638   26  y   0.9267027944   27  z  -0.9031379097
  H       :    28  x  -5.3379849743   29  y  -2.4911692588   30  z   0.5025348684
  H       :    31  x  -1.6500143660   32  y   1.5477045936   33  z  -0.5789931874


   Interatomic separations (in Angstrom):
   --------------------------------------

            C           C           C           C           H           H     
            ------      ------      ------      ------      ------      ------
 C     :    0.000000
 C     :    1.389998    0.000000
 C     :    2.344629    1.389999    0.000000
 C     :    2.961344    2.465647    1.389997    0.000000
 H     :    2.252255    1.089430    2.094578    3.281163    0.000000
 H     :    3.202366    2.104427    1.088914    2.143644    2.430536    0.000000
 H     :    2.876399    2.775310    2.173354    1.086252    3.654130    3.121763
 H     :    3.997100    3.434854    2.154758    1.086123    4.159087    2.472514
 O     :    1.389998    2.482773    2.808421    2.891683    3.510461    3.696494
 H     :    1.084537    2.178689    3.361254    4.010529    2.683550    4.154236
 H     :    1.934548    2.193990    1.814219    1.506709    3.266413    2.744551

            H           H           O           H           H     
            ------      ------      ------      ------      ------
 H     :    0.000000
 H     :    1.854818    0.000000
 O     :    2.619153    3.787501    0.000000
 H     :    3.808873    5.063699    2.041243    0.000000
 H     :    1.447811    2.373605    1.416070    2.950291    0.000000


  Max    interatomic separation is    5.0637 Angstrom (    9.5690 Bohr)
  between atoms   10 and    8, "H     " and "H     ".

  Min HX interatomic separation is    1.0845 Angstrom (    2.0495 Bohr)

  Min YX interatomic separation is    1.3900 Angstrom (    2.6267 Bohr)


  Bond distances (Angstrom):
  --------------------------

                  atom 1     atom 2       distance
                  ------     ------       --------
  bond distance:  C          C            1.389998
  bond distance:  C          C            1.389999
  bond distance:  C          C            1.389997
  bond distance:  H          C            1.089430
  bond distance:  H          C            1.088914
  bond distance:  H          C            1.086252
  bond distance:  H          C            1.086123
  bond distance:  O          C            1.389998
  bond distance:  H          C            1.084537


  Bond angles (degrees):
  ----------------------

                  atom 1     atom 2     atom 3         angle
                  ------     ------     ------         -----
  bond angle:     C          C          O            126.527
  bond angle:     C          C          H            122.916
  bond angle:     O          C          H            110.550
  bond angle:     C          C          C            115.000
  bond angle:     C          C          H            130.172
  bond angle:     C          C          H            114.757
  bond angle:     C          C          C            124.979
  bond angle:     C          C          H            115.658
  bond angle:     C          C          H            119.212
  bond angle:     C          C          H            122.251
  bond angle:     C          C          H            120.473
  bond angle:     H          C          H            117.259




 Principal moments of inertia (u*A**2) and principal axes
 --------------------------------------------------------

   IA      57.179339          0.988922    0.130057    0.071549
   IB     107.900265         -0.122108    0.986834   -0.106061
   IC     154.901658         -0.084401    0.096149    0.991782


 Rotational constants
 --------------------

               A                   B                   C

           8838.4899           4683.7605           3262.5797 MHz
            0.294820            0.156233            0.108828 cm-1


@  Nuclear repulsion energy :  162.250396155644 Hartree


                     .---------------------------------------.
                     | Starting in Integral Section (HERMIT) |
                     `---------------------------------------'



 ***************************************************************************************
 ****************** Output from **INTEGRALS input processing (HERMIT) ******************
 ***************************************************************************************


 - Using defaults, no **INTEGRALS input found

 Default print level:        1

 Calculation of one- and two-electron Hamiltonian integrals.

 Center of mass  (bohr):     -1.536242497534     -0.387677072948     -0.209264348641
 Operator center (bohr):      0.000000000000      0.000000000000      0.000000000000
 Gauge origin    (bohr):      0.000000000000      0.000000000000      0.000000000000
 Dipole origin   (bohr):      0.000000000000      0.000000000000      0.000000000000

Calculation of 2-electron integrals are postponed until they are needed.


     ************************************************************************
     ************************** Output from HERINT **************************
     ************************************************************************



                      Nuclear contribution to dipole moments
                      --------------------------------------

                 au               Debye          C m (/(10**-30)

      x    -55.31014829      -140.58436519      -468.93896574
      y    -14.56476175       -37.01992941      -123.48519257
      z     -7.22202302       -18.35655035       -61.23086110


  Total CPU  time used in HERMIT:   0.06 seconds
  Total wall time used in HERMIT:   0.06 seconds


                        .----------------------------------.
                        | End of Integral Section (HERMIT) |
                        `----------------------------------'



                   .--------------------------------------------.
                   | Starting in Wave Function Section (SIRIUS) |
                   `--------------------------------------------'


 *** Output from Huckel module :

     Using EWMO model:          T
     Using EHT  model:          F
     Number of Huckel orbitals each symmetry:   31

 EWMO - Energy Weighted Maximum Overlap - is a Huckel type method,
        which normally is better than Extended Huckel Theory.
 Reference: Linderberg and Ohrn, Propagators in Quantum Chemistry (Wiley, 1973)

 Huckel EWMO eigenvalues for symmetry :  1
          -20.683342     -11.360037     -11.351889     -11.348380     -11.345173
           -1.914677      -1.478209      -1.329945      -1.039833      -0.943006
           -0.824282      -0.737782      -0.645617      -0.614681      -0.586361
           -0.546296      -0.492455      -0.430143      -0.418309      -0.274277
           -0.227198      -0.216208      -0.184803      -0.129085      -0.124176
           -0.120348      -0.117653      -0.108681      -0.097286      -0.090802
           -0.083766

 **********************************************************************
 *SIRIUS* a direct, restricted step, second order MCSCF program       *
 **********************************************************************

 
     Date and time (Linux)  : Thu Mar 28 10:17:58 2024
     Host name              : pc-157-10                               

 Title lines from ".mol" input file:
     TS                                                                      
                                                                             

 Print level on unit LUPRI =   2 is   0
 Print level on unit LUW4  =   2 is   5

@    Restricted, closed shell Hartree-Fock calculation.

 Initial molecular orbitals are obtained according to
 ".MOSTART EWMO  " input option

     Wave function specification
     ============================
@    Wave function type        --- HF ---
@    Number of closed shell electrons          38
@    Number of electrons in active shells       0
@    Total charge of the molecule               0

@    Spin multiplicity and 2 M_S                1         0
@    Total number of symmetries                 1 (point group: C1 )
@    Reference state symmetry                   1 (irrep name : A  )

     Orbital specifications
     ======================
@    Abelian symmetry species          All |    1
@                                          |  A  
                                       --- |  ---
@    Occupied SCF orbitals              19 |   19
@    Secondary orbitals                 38 |   38
@    Total number of orbitals           57 |   57
@    Number of basis functions          57 |   57

     Optimization information
     ========================
@    Number of configurations                 1
@    Number of orbital rotations            722
     ------------------------------------------
@    Total number of variables              723

     Maximum number of Fock   iterations      0
     Maximum number of DIIS   iterations     60
     Maximum number of QC-SCF iterations     60
     Threshold for SCF convergence     1.00D-05


 ***********************************************
 ***** DIIS acceleration of SCF iterations *****
 ***********************************************

 C1-DIIS algorithm; max error vectors =    8

 Iter      Total energy        Error norm    Delta(E)  DIIS dim.
 -----------------------------------------------------------------------------

Calculating AOSUPINT

---> (Re)generating AOTWOINT


     ************************************************************************
     ************************** Output from HERINT **************************
     ************************************************************************


 Threshold for neglecting two-electron integrals:  1.00D-12
 HERMIT - Number of two-electron integrals written:     1326999 ( 97.1% )
 HERMIT - Megabytes written:                             15.197

  Time used in TWOINT     is       0.48 seconds
  CPU  time used in MAKE_AOTWOINT is   0.48 seconds
  WALL time used in MAKE_AOTWOINT is   0.48 seconds
     (Precalculated AO two-electron integrals are transformed to P-supermatrix elements.
      Threshold for discarding integrals :  1.00D-12 )
@  1    -228.656139083        3.52068D+00   -2.29D+02    1
      Virial theorem: -V/T =      2.005787
@    MULPOP   C       0.57; C       0.21; C       0.58; C       0.26; H      -0.16; H      -0.19; H      -0.08; H      -0.14; O      -1.12; H      -0.21; 
@             H       0.28; 
   1  Level shift: doubly occupied orbital energies shifted by -2.00D-01
 -----------------------------------------------------------------------------
@  2    -229.318492474        2.04110D+00   -6.62D-01    2
      Virial theorem: -V/T =      2.005007
@    MULPOP   C      -0.02; C      -0.45; C      -0.27; C      -0.41; H       0.21; H       0.21; H       0.24; H       0.19; O      -0.04; H       0.11; 
@             H       0.24; 
   2  Level shift: doubly occupied orbital energies shifted by -2.00D-01
 -----------------------------------------------------------------------------
@  3    -229.543224425        3.48294D-01   -2.25D-01    3
      Virial theorem: -V/T =      1.999318
@    MULPOP   C       0.17; C      -0.27; C      -0.14; C      -0.47; H       0.21; H       0.21; H       0.24; H       0.20; O      -0.66; H       0.17; 
@             H       0.35; 
   3  Level shift: doubly occupied orbital energies shifted by -5.00D-02
 -----------------------------------------------------------------------------
@  4    -229.555304369        1.14254D-01   -1.21D-02    4
      Virial theorem: -V/T =      2.001714
@    MULPOP   C       0.22; C      -0.31; C      -0.09; C      -0.49; H       0.21; H       0.21; H       0.24; H       0.20; O      -0.72; H       0.18; 
@             H       0.36; 
   4  Level shift: doubly occupied orbital energies shifted by -2.50D-02
 -----------------------------------------------------------------------------
@  5    -229.557128085        4.03326D-02   -1.82D-03    5
      Virial theorem: -V/T =      2.000897
@    MULPOP   C       0.23; C      -0.33; C      -0.11; C      -0.52; H       0.23; H       0.22; H       0.25; H       0.21; O      -0.74; H       0.20; 
@             H       0.37; 
   5  Level shift: doubly occupied orbital energies shifted by -1.25D-02
 -----------------------------------------------------------------------------
@  6    -229.557460221        1.50263D-02   -3.32D-04    6
      Virial theorem: -V/T =      2.000887
@    MULPOP   C       0.22; C      -0.34; C      -0.10; C      -0.52; H       0.23; H       0.22; H       0.25; H       0.21; O      -0.74; H       0.20; 
@             H       0.37; 
 -----------------------------------------------------------------------------
@  7    -229.557505750        6.32062D-03   -4.55D-05    7
      Virial theorem: -V/T =      2.000886
@    MULPOP   C       0.22; C      -0.34; C      -0.10; C      -0.52; H       0.23; H       0.22; H       0.25; H       0.21; O      -0.74; H       0.20; 
@             H       0.37; 
 -----------------------------------------------------------------------------
@  8    -229.557514405        1.82121D-03   -8.65D-06    8
      Virial theorem: -V/T =      2.000884
@    MULPOP   C       0.22; C      -0.34; C      -0.10; C      -0.52; H       0.23; H       0.22; H       0.25; H       0.21; O      -0.73; H       0.20; 
@             H       0.37; 
 -----------------------------------------------------------------------------
@  9    -229.557515171        7.62716D-04   -7.66D-07    8
      Virial theorem: -V/T =      2.000879
@    MULPOP   C       0.22; C      -0.34; C      -0.10; C      -0.52; H       0.23; H       0.22; H       0.25; H       0.21; O      -0.73; H       0.20; 
@             H       0.37; 
 -----------------------------------------------------------------------------
@ 10    -229.557515306        2.91307D-04   -1.35D-07    8
      Virial theorem: -V/T =      2.000879
@    MULPOP   C       0.22; C      -0.34; C      -0.10; C      -0.52; H       0.23; H       0.22; H       0.25; H       0.21; O      -0.73; H       0.20; 
@             H       0.37; 
 -----------------------------------------------------------------------------
@ 11    -229.557515331        1.09393D-04   -2.51D-08    8
      Virial theorem: -V/T =      2.000879
@    MULPOP   C       0.22; C      -0.34; C      -0.10; C      -0.52; H       0.23; H       0.22; H       0.25; H       0.21; O      -0.73; H       0.20; 
@             H       0.37; 
 -----------------------------------------------------------------------------
@ 12    -229.557515334        3.98942D-05   -3.01D-09    8
      Virial theorem: -V/T =      2.000879
@    MULPOP   C       0.22; C      -0.34; C      -0.10; C      -0.52; H       0.23; H       0.22; H       0.25; H       0.21; O      -0.73; H       0.20; 
@             H       0.37; 
 -----------------------------------------------------------------------------
@ 13    -229.557515335        9.42622D-06   -3.37D-10    8

@ *** DIIS converged in  13 iterations !
@     Converged SCF energy, gradient:   -229.557515334650    9.43D-06
    - total time used in SIRFCK :              0.00 seconds


 *** SCF orbital energy analysis ***

 Only the 20 lowest virtual orbital energies printed in each symmetry.

 Number of electrons :   38
 Orbital occupations :   19

 Sym       Hartree-Fock orbital energies

1 A     -20.55761355   -11.32347426   -11.30675293   -11.26679590   -11.23407339
         -1.32386023    -1.13431311    -1.00111507    -0.86045793    -0.76768496
         -0.70500383    -0.64081051    -0.61370788    -0.58754730    -0.53629289
         -0.51919127    -0.48579622    -0.40621950    -0.31306220     0.08766220
          0.19976541     0.21848515     0.25925830     0.28106840     0.28271713
          0.30828908     0.32222255     0.39609856     0.45805438     0.54484380
          0.55863583     0.71246282     0.73750626     0.78400156     0.79291457
          0.82389347     0.85987838     0.87226825     0.89197743

    E(LUMO) :     0.08766220 au (symmetry 1)
  - E(HOMO) :    -0.31306220 au (symmetry 1)
  ------------------------------------------
    gap     :     0.40072440 au

 --- Writing SIRIFC interface file

 CPU and wall time for SCF :       0.645       0.645


                       .-----------------------------------.
                       | --- Final results from SIRIUS --- |
                       `-----------------------------------'


@    Spin multiplicity:           1
@    Spatial symmetry:            1 ( irrep  A   in C1  )
@    Total charge of molecule:    0

@    Final HF energy:            -229.557515334650                 
@    Nuclear repulsion:           162.250396155644
@    Electronic energy:          -391.807911490294

@    Final gradient norm:           0.000009426220

 
     Date and time (Linux)  : Thu Mar 28 10:17:59 2024
     Host name              : pc-157-10                               

File label for MO orbitals:  28Mar24   FOCKDIIS

 (Only coefficients > 0.0100 are printed.)

 Molecular orbitals for symmetry species 1  (A  )
 ------------------------------------------------

    Orbital        10       11       12       13       14       15       16
   1 C   :1s    -0.0732  -0.0338  -0.0017   0.0244  -0.0053   0.0159  -0.0024
   2 C   :1s     0.1637   0.0712   0.0038  -0.0561   0.0033  -0.0367   0.0011
   3 C   :1s     0.1458   0.0552  -0.0236  -0.0313   0.0253  -0.0886  -0.0162
   4 C   :2px   -0.2086   0.0923   0.3127   0.0433   0.0155  -0.0244   0.0442
   5 C   :2py   -0.0320   0.0594  -0.0108  -0.1419  -0.1922  -0.2783   0.0343
   6 C   :2pz    0.0090  -0.0154  -0.0506   0.0849   0.0682   0.0413   0.2484
   7 C   :2px   -0.0876   0.0557   0.1211  -0.0045   0.0048  -0.1355  -0.0176
   8 C   :2py   -0.0449   0.0205   0.0109  -0.0309  -0.0742  -0.0893   0.0484
   9 C   :2pz    0.0148  -0.0013  -0.0330   0.0299   0.0223  -0.0086   0.1687
  10 C   :1s     0.0625   0.0581  -0.0156  -0.0234   0.0231  -0.0066  -0.0028
  11 C   :1s    -0.1253  -0.1124   0.0298   0.0459  -0.0515   0.0127   0.0027
  12 C   :1s    -0.1094  -0.1918   0.0272   0.0665  -0.0360   0.0725   0.0557
  13 C   :2px   -0.0320  -0.0968  -0.2237  -0.1038  -0.1396   0.0037   0.0015
  14 C   :2py   -0.0299   0.2502   0.0372  -0.1525  -0.1093   0.2194   0.1360
  15 C   :2pz   -0.0076  -0.0612  -0.0548   0.1349  -0.0103  -0.1200   0.1043
  16 C   :2px   -0.0105  -0.0469  -0.0766  -0.0239  -0.0392  -0.0697  -0.0157
  17 C   :2py    0.0193   0.0978   0.0149  -0.0962  -0.0265   0.1407   0.1087
  18 C   :2pz   -0.0106  -0.0270  -0.0279   0.0673  -0.0115  -0.0674   0.0586
  19 C   :1s    -0.0623  -0.0419   0.0209   0.0024  -0.0000  -0.0189  -0.0042
  20 C   :1s     0.1278   0.0805  -0.0517  -0.0056  -0.0005   0.0456   0.0216
  21 C   :1s     0.1464   0.1239  -0.0183   0.0085  -0.0226   0.0628  -0.0387
  22 C   :2px    0.2102  -0.0757   0.1110   0.0676   0.1803  -0.1706   0.0159
  23 C   :2py    0.0402   0.1449   0.0179   0.3144  -0.0420  -0.0872  -0.0857
  24 C   :2pz   -0.1001   0.0275  -0.1484   0.1256  -0.2219   0.0338   0.0323
  25 C   :2px    0.0779  -0.0587   0.0267  -0.0129   0.1219  -0.0737   0.0459
  26 C   :2py    0.0014   0.0660   0.0194   0.1327  -0.0436  -0.0441  -0.0498
  27 C   :2pz   -0.0419   0.0231  -0.0530   0.0759  -0.1408   0.0193   0.0269
  28 C   :1s     0.0056   0.0437  -0.0027  -0.0039   0.0255  -0.0010   0.0120
  29 C   :1s    -0.0072  -0.0874   0.0107   0.0207  -0.0560   0.0088  -0.0196
  30 C   :1s    -0.0251  -0.1377  -0.0189  -0.0586  -0.0344  -0.0080  -0.0554
  31 C   :2px    0.1372  -0.1330   0.2221   0.0181  -0.2110   0.0494   0.0986
  32 C   :2py   -0.1043  -0.2043   0.0833  -0.2976   0.0488   0.0705   0.0496
  33 C   :2pz   -0.0939  -0.0443  -0.1554  -0.1198   0.0520   0.0002   0.0123
  34 C   :2px    0.0613  -0.0535   0.1347   0.0470  -0.1461   0.0627   0.0473
  35 C   :2py   -0.0225  -0.0602   0.0546  -0.0989  -0.0036   0.0475  -0.0041
  36 C   :2pz   -0.0315  -0.0115  -0.0824  -0.0479   0.0351  -0.0075   0.0014
  37 H   :1s    -0.0499  -0.2052  -0.0417   0.1212   0.0109  -0.1613  -0.0655
  38 H   :1s    -0.0127  -0.1080  -0.0267   0.0696   0.0177  -0.1149  -0.0430
  39 H   :1s     0.1549  -0.0270   0.0695  -0.1016   0.1840  -0.0496   0.0306
  40 H   :1s     0.0713  -0.0054   0.0548  -0.0543   0.1115  -0.0466   0.0233
  41 H   :1s    -0.1154  -0.0638  -0.1190  -0.1398   0.1168  -0.0086  -0.0282
  42 H   :1s    -0.0535  -0.0466  -0.0689  -0.0895   0.0643  -0.0065   0.0278
  43 H   :1s     0.0338  -0.1547   0.1619  -0.0622  -0.1346   0.0587   0.0580
  44 H   :1s     0.0109  -0.0885   0.0881  -0.0588  -0.0747   0.0304   0.0621
  45 O   :1s     0.0199   0.0364  -0.0087  -0.0374  -0.0061  -0.0461  -0.0067
  46 O   :1s    -0.0450  -0.0854   0.0132   0.0877   0.0112   0.1163   0.0111
  47 O   :1s    -0.0616  -0.1260   0.0463   0.1373   0.0338   0.1611   0.0370
  48 O   :2px   -0.1058   0.1062   0.1258  -0.0521   0.1118  -0.2248  -0.0285
  49 O   :2py   -0.1285  -0.0582   0.0517   0.1909   0.2266   0.2577   0.2327
  50 O   :2pz    0.0281   0.0285  -0.0671  -0.0500  -0.0298  -0.2193   0.4222
  51 O   :2px   -0.0556   0.0616   0.0821  -0.0349   0.0765  -0.1559  -0.0117
  52 O   :2py   -0.0669  -0.0360   0.0242   0.1173   0.1361   0.1760   0.1667
  53 O   :2pz    0.0122   0.0171  -0.0394  -0.0320  -0.0120  -0.1583   0.3114
  54 H   :1s     0.1607  -0.0190  -0.1499   0.0037   0.0732   0.1001   0.0070
  55 H   :1s     0.0594  -0.0025  -0.0870  -0.0001   0.0542   0.0479  -0.0057
  56 H   :1s    -0.0962   0.0530   0.0046   0.0026   0.1229  -0.0446  -0.0069
  57 H   :1s    -0.0802   0.0292   0.0247   0.0326   0.1648   0.0156  -0.0008

    Orbital        17       18       19       20       21       22       23
   1 C   :1s     0.0087  -0.0122   0.0013   0.0190   0.0233   0.0022   0.0128
   2 C   :1s    -0.0287   0.0169  -0.0044  -0.0537  -0.0495  -0.0162   0.0241
   3 C   :1s     0.0491   0.0666   0.0350  -0.1245  -0.2645  -0.1740  -0.2898
   4 C   :2px   -0.2288  -0.0470   0.0211  -0.0414  -0.0413   0.0312   0.0534
   5 C   :2py   -0.0211  -0.0468   0.0932   0.1116  -0.0884   0.0804  -0.0023
   6 C   :2pz    0.0135   0.0515   0.2064   0.2414  -0.3259   0.0750   0.0079
   7 C   :2px   -0.0176   0.0512   0.0145   0.0630   0.0038  -0.0798   0.2681
   8 C   :2py   -0.0404  -0.0783   0.0736   0.2119  -0.1206   0.2458  -0.1458
   9 C   :2pz    0.0121   0.0295   0.1464   0.2972  -0.5972   0.1335   0.0171
  10 C   :1s     0.0109   0.0183  -0.0034   0.0057   0.0072   0.0311   0.0247
  11 C   :1s    -0.0104  -0.0402   0.0115  -0.0168  -0.0238  -0.0693   0.0033
  12 C   :1s    -0.1718  -0.1279   0.0234  -0.1313  -0.0605  -0.2910  -0.7579
  13 C   :2px    0.1974   0.0820   0.0147   0.0142   0.0038  -0.0437  -0.0405
  14 C   :2py   -0.0510   0.0712   0.1163  -0.0337   0.1257   0.0190   0.0686
  15 C   :2pz   -0.0569   0.1404   0.3346  -0.0491   0.2664  -0.1254   0.0300
  16 C   :2px    0.1242   0.0848   0.0448  -0.0643  -0.0179  -0.1908  -0.1065
  17 C   :2py   -0.1050   0.0810   0.1074  -0.0936   0.2474   0.2624   0.0800
  18 C   :2pz   -0.0245   0.1117   0.3485  -0.0159   0.5114  -0.4083  -0.0214
  19 C   :1s    -0.0012  -0.0028   0.0039  -0.0146   0.0034   0.0668   0.0241
  20 C   :1s    -0.0070   0.0094  -0.0145   0.0184  -0.0323  -0.1080  -0.0353
  21 C   :1s     0.0570   0.0159  -0.0356   0.2167   0.0341  -1.1275  -0.2545
  22 C   :2px   -0.2042   0.1144  -0.0074  -0.1887  -0.1411  -0.0677  -0.0948
  23 C   :2py   -0.0041  -0.1192  -0.0265   0.1319   0.1101  -0.0010  -0.0023
  24 C   :2pz   -0.0555   0.1995  -0.0824  -0.2831  -0.1068   0.1084   0.0519
  25 C   :2px   -0.1969   0.0987   0.0024  -0.3984  -0.3289  -0.2387  -0.4281
  26 C   :2py    0.0367  -0.0615  -0.0003   0.1659   0.4709  -0.0498  -0.0529
  27 C   :2pz   -0.0112   0.1485  -0.0997  -0.4505  -0.1171   0.3682   0.2564
  28 C   :1s     0.0135   0.0139   0.0147  -0.0061   0.0473   0.0330  -0.1086
  29 C   :1s    -0.0329  -0.0130  -0.0563   0.0279  -0.0586  -0.0773   0.1269
  30 C   :1s    -0.0526  -0.1104   0.0103  -0.0177  -0.8232  -0.2855   1.7128
  31 C   :2px    0.0310   0.1594  -0.1065   0.1166   0.0242  -0.0033  -0.1180
  32 C   :2py    0.0738  -0.0366   0.1436  -0.0803   0.0083  -0.1095   0.1435
  33 C   :2pz   -0.2591   0.1655  -0.1715   0.1884   0.0880   0.1078   0.0801
  34 C   :2px    0.0441   0.1475  -0.1581   0.2635   0.0608  -0.1464  -0.3401
  35 C   :2py    0.0653  -0.0267   0.0968  -0.1515  -0.0162  -0.4947   0.5085
  36 C   :2pz   -0.1848   0.1430  -0.1532   0.3063   0.2186   0.1911   0.2666
  37 H   :1s     0.0425  -0.0406   0.0039   0.0574   0.0331   0.0272  -0.0091
  38 H   :1s     0.0160  -0.0240  -0.0021   0.1322   0.2947   0.6822   0.4458
  39 H   :1s    -0.0884   0.0183   0.0653  -0.0215   0.0542   0.0229   0.0542
  40 H   :1s    -0.0474   0.0189   0.0813  -0.0552   0.5486   1.0414   0.8017
  41 H   :1s    -0.1304  -0.0133  -0.0104   0.0405   0.0129  -0.0714  -0.0388
  42 H   :1s    -0.1219   0.0017  -0.0611   0.1699   0.2608  -0.2619  -1.5448
  43 H   :1s     0.0913   0.0317   0.0138  -0.0033   0.0259   0.0481  -0.0041
  44 H   :1s     0.0613   0.0323   0.0418  -0.0409   0.4375   0.8229  -0.6474
  45 O   :1s     0.0260   0.0040   0.0035  -0.0124  -0.0003   0.0381  -0.0304
  46 O   :1s    -0.0650  -0.0282   0.0023   0.0210  -0.0034  -0.0709   0.0534
  47 O   :1s    -0.1014   0.0372  -0.0484   0.0892   0.0154  -0.3637   0.3515
  48 O   :2px    0.2398   0.3714  -0.1259   0.0970   0.0090  -0.1878   0.0837
  49 O   :2py    0.0665   0.0443  -0.1337  -0.0004   0.0666  -0.0278   0.0338
  50 O   :2pz    0.0606  -0.2295  -0.2522  -0.1183   0.1540  -0.0789   0.0575
  51 O   :2px    0.1794   0.3129  -0.1270   0.1290   0.0221  -0.2780   0.1323
  52 O   :2py    0.0406   0.0131  -0.1187  -0.0000   0.0949  -0.0190  -0.0459
  53 O   :2pz    0.0478  -0.1783  -0.2429  -0.1538   0.2132  -0.1191   0.0830
  54 H   :1s     0.1458   0.0928  -0.0210   0.0368   0.0221  -0.0028   0.0212
  55 H   :1s     0.1444   0.1029  -0.0255   0.1802   0.2646   0.1485   0.3332
  56 H   :1s     0.1481   0.0265   0.0312  -0.0941  -0.0179   0.1809  -0.0650
  57 H   :1s     0.2061   0.0850   0.0465  -0.3301  -0.1301   0.6871  -0.4749

    Orbital        24       25       26       27       28       29
   1 C   :1s     0.0075  -0.0022   0.1077  -0.0007   0.0715   0.0051
   2 C   :1s     0.0165   0.0139  -0.1513   0.0185  -0.0656  -0.0786
   3 C   :1s    -0.6198  -0.1657  -1.6202  -0.2741  -1.1706   0.0318
   4 C   :2px    0.1859  -0.0112   0.1699   0.0232  -0.0716   0.0338
   5 C   :2py    0.1222  -0.0011   0.0883  -0.0508  -0.1762  -0.1564
   6 C   :2pz   -0.0508  -0.0430  -0.0298   0.0388   0.0938  -0.0550
   7 C   :2px    0.3919  -0.2795   0.9167   0.0616  -0.1304   0.5487
   8 C   :2py    0.3433   0.0926   0.6571  -0.2696  -0.9184  -0.6010
   9 C   :2pz   -0.1358  -0.2207  -0.2618   0.0932   0.4448   0.0294
  10 C   :1s     0.0557   0.0077  -0.0563   0.0594   0.0320   0.0233
  11 C   :1s    -0.0455  -0.0242   0.0904  -0.0701   0.0429  -0.0733
  12 C   :1s    -1.0414   0.0424   0.6451  -0.8431  -1.6111  -1.0787
  13 C   :2px   -0.0088  -0.0332  -0.0461  -0.0912  -0.1009   0.0389
  14 C   :2py    0.1931   0.0007  -0.0840  -0.0076   0.0424   0.0313
  15 C   :2pz   -0.0965   0.0922   0.0043  -0.0166  -0.0171  -0.0081
  16 C   :2px   -0.3047  -0.3086  -0.2464  -0.4627  -1.1289   0.0882
  17 C   :2py    0.8188   0.1958  -0.8631   0.3292  -0.3022   0.3998
  18 C   :2pz   -0.2829   0.3031   0.2753  -0.0064  -0.0001   0.4256
  19 C   :1s    -0.0197  -0.0118   0.0045  -0.0877  -0.0559   0.0680
  20 C   :1s     0.0252  -0.0681  -0.0235   0.0981   0.0419  -0.0335
  21 C   :1s     0.3711   0.6770   0.3977   1.6342   1.6915  -2.6839
  22 C   :2px    0.0858   0.0649   0.0678   0.0618  -0.1656  -0.0301
  23 C   :2py    0.0292  -0.1174  -0.0404  -0.0712  -0.0357  -0.2363
  24 C   :2pz    0.0022  -0.1545   0.0102  -0.0545   0.1146  -0.1431
  25 C   :2px    0.3325   0.2438   0.0380   0.6594  -1.1580  -0.2450
  26 C   :2py   -0.2174  -0.4718  -0.0874  -0.4021  -0.0990  -2.4133
  27 C   :2pz    0.1189  -0.4852  -0.0059  -0.4192   0.9135  -0.9769
  28 C   :1s     0.0084  -0.0273   0.0049   0.0413   0.0393  -0.0781
  29 C   :1s     0.0107  -0.0463  -0.0300  -0.0484  -0.0402  -0.0145
  30 C   :1s    -0.0570   1.0093  -0.0465  -0.5569  -0.7792   2.7036
  31 C   :2px    0.0755   0.2099  -0.0221  -0.2020   0.1247   0.0262
  32 C   :2py    0.0527   0.0588  -0.0046  -0.0099  -0.0031  -0.0602
  33 C   :2pz   -0.1240   0.1604   0.0220   0.1176  -0.0360  -0.0986
  34 C   :2px    0.4154   0.5508  -0.2042  -1.2076   1.0867  -0.4342
  35 C   :2py    0.2285   0.1836  -0.0751   0.0311   0.5661  -2.6229
  36 C   :2pz   -0.4656   0.4362   0.1095   0.6960  -0.3620  -0.8630
  37 H   :1s     0.0361   0.0228  -0.0249  -0.0049  -0.1006  -0.0990
  38 H   :1s     1.6046   0.1316  -1.2036   0.7927   0.4877   0.3577
  39 H   :1s    -0.0314   0.0060   0.0217   0.0231  -0.0129  -0.0181
  40 H   :1s    -0.4937  -0.9659  -0.1738  -1.4930   0.7565  -0.6023
  41 H   :1s     0.0404  -0.0818  -0.0046  -0.0054  -0.0481   0.0523
  42 H   :1s     0.7153  -0.8312  -0.1878  -0.9909   0.8299   0.6631
  43 H   :1s    -0.0174  -0.0109   0.0009   0.0231   0.0036   0.1113
  44 H   :1s    -0.7178  -0.9063   0.2932   1.6478  -0.8217   0.3964
  45 O   :1s     0.0095   0.0438  -0.0120  -0.0193  -0.0474  -0.0332
  46 O   :1s    -0.0218  -0.0744   0.0314   0.0202   0.0545   0.0373
  47 O   :1s    -0.0839  -0.4893   0.0459   0.3120   0.8215   0.5667
  48 O   :2px   -0.0194  -0.1851  -0.0194   0.0052  -0.0148  -0.0135
  49 O   :2py    0.0676  -0.0340  -0.1321  -0.0287  -0.2671  -0.0774
  50 O   :2pz   -0.0364   0.0432   0.0368   0.0253   0.0647   0.0286
  51 O   :2px   -0.0676  -0.3131  -0.1161   0.0559   0.0566   0.0600
  52 O   :2py    0.1096  -0.0333  -0.1907  -0.1389  -0.6486  -0.2395
  53 O   :2pz   -0.0358   0.0096   0.0629   0.0641   0.1899   0.1473
  54 H   :1s     0.0248  -0.0250   0.0011  -0.0178  -0.0350  -0.0129
  55 H   :1s     1.0370  -0.1405   2.0760  -0.0705  -0.3359   0.1450
  56 H   :1s    -0.0651   0.2140   0.0603   0.0015   0.0792   0.0405
  57 H   :1s    -0.1939   1.2701   0.0212  -0.1474   0.5390  -0.4255

  Total CPU  time used in SIRIUS :   0.67 seconds
  Total wall time used in SIRIUS :   0.67 seconds

 
     Date and time (Linux)  : Thu Mar 28 10:17:59 2024
     Host name              : pc-157-10                               


                     .---------------------------------------.
                     | End of Wave Function Section (SIRIUS) |
                     `---------------------------------------'


 Initial molecular Hessian will be calculated now.

 Center of mass dipole origin  :   -1.536242   -0.387677   -0.209264

 Center of mass gauge origin   :   -1.536242   -0.387677   -0.209264


                 .------------------------------------------------.
                 | Starting in Static Property Section (ABACUS) - |
                 `------------------------------------------------'


 
     Date and time (Linux)  : Thu Mar 28 10:17:59 2024
     Host name              : pc-157-10                               


   ***************************************************************************
   ************************ FINAL RESULTS from ABACUS ************************
   ***************************************************************************


 
     Date and time (Linux)  : Thu Mar 28 10:18:12 2024
     Host name              : pc-157-10                               


                             Molecular geometry (au)
                             -----------------------

 C         -3.6357007837           -1.4668054182           -0.0007180959
 C         -1.2303817827           -2.4983691153            0.2227798129
 C          0.7288106746           -0.9206745681           -0.5335830687
 C          1.0660134044            1.5554902653            0.2754464800
 H         -0.6422801154           -4.3806686167            0.8139050420
 H          2.1501114878           -1.7834290305           -1.7459746587
 H         -0.2349118546            2.4706846276            1.5730080264
 H          2.6939557693            2.6406465953           -0.3449506069
 O         -4.2326841638            0.9267027944           -0.9031379097
 H         -5.3379849743           -2.4911692588            0.5025348684
 H         -1.6500143660            1.5477045936           -0.5789931874





                        Molecular wave function and energy
                        ----------------------------------

     Spatial symmetry   1 ( A   )
     Spin multiplicity  1
     2 * M_S            0
     State number       1
     Total charge       0

     Total energy       -229.5575153346 au (Hartrees)
                         -6246.57774806 eV
                           -602703.1636 kJ/mol
                           -144049.5133 kcal/mol


                   Scalar Breit-Pauli relativistic corrections
                   -------------------------------------------

     Darwin correction:                          0.4328812070 au
     Mass-velocity correction:                  -0.5426732652 au

     Total relativistic correction:             -0.1097920581 au ( 0.0478%)
     Non-relativistic + relativistic energy:  -229.6673073928 au



      (Note that these corrections are NOT included in the results below.)


                             Molecular gradient (au)
                             -----------------------

 C          0.0178122699            0.0111670320           -0.0039539907
 C          0.0680269613           -0.0006970648           -0.0038570039
 C         -0.0710338254           -0.0438391125           -0.0160895880
 C          0.0059092768            0.0245659448            0.0265479429
 H          0.0220206706           -0.0078291782            0.0053956712
 H          0.0009153198           -0.0107319713           -0.0044771751
 H         -0.0160178141            0.0054493648           -0.0154648201
 H          0.0146881151            0.0022739849            0.0009373607
 O         -0.0991108997            0.0287762914           -0.0386616726
 H         -0.0104797823            0.0044938015            0.0066416249
 H          0.0672697081           -0.0136290924            0.0429816506





                              Molecular Hessian (au)
                              ----------------------

           C    x      C    y      C    z      C    x      C    y      C    z

 C    x    0.807034
 C    y    0.087053    0.499521
 C    z   -0.053836   -0.118440    0.250895

 C    x   -0.353920    0.024181   -0.018606    0.752094
 C    y    0.083505   -0.174858    0.026321   -0.007491    0.738995
 C    z   -0.015414    0.027601   -0.086200   -0.057532   -0.187479    0.220510

 C    x   -0.076611    0.008403    0.016237   -0.272055   -0.151236    0.086112
 C    y   -0.026404    0.072988   -0.005675   -0.098570   -0.227870    0.057205
 C    z    0.009460   -0.009873    0.005264    0.076568    0.062317   -0.111199

 C    x   -0.016517    0.035519   -0.009211    0.031476   -0.031182   -0.010832
 C    y    0.026090   -0.040025    0.004206   -0.051033   -0.026547   -0.004367
 C    z   -0.007592    0.014909   -0.003352    0.016273    0.013545    0.014514

 H    x    0.002218    0.030953   -0.009649   -0.085126    0.073589   -0.014741
 H    y   -0.005079   -0.000115    0.000485    0.071548   -0.300109    0.083313
 H    z   -0.005947    0.005914   -0.001697   -0.000456    0.084538   -0.066021

 H    x    0.003243   -0.007722    0.005611   -0.026539    0.009319    0.020542
 H    y   -0.004945   -0.000279    0.002164   -0.015381    0.015837    0.010239
 H    z    0.005374   -0.002553   -0.000326    0.000111   -0.009101    0.006814

 H    x    0.000629   -0.005965   -0.000509   -0.006433   -0.000367   -0.005004
 H    y   -0.001960    0.003039   -0.000844    0.005950    0.001858    0.003786
 H    z    0.003525   -0.013645    0.002644   -0.012369    0.001169   -0.004788

 H    x   -0.000722    0.005278   -0.000676    0.008182   -0.001302    0.003697
 H    y    0.001634   -0.004562    0.001174   -0.003168   -0.002883   -0.006008
 H    z   -0.000555    0.005378   -0.000903    0.010949   -0.003765    0.007232

 O    x   -0.124123    0.052678   -0.010324    0.022425    0.034935   -0.013670
 O    y   -0.018471   -0.181787    0.046726    0.068262   -0.024123    0.012073
 O    z    0.006656    0.047508   -0.090975   -0.019112    0.010849    0.008199

 H    x   -0.274408   -0.119043    0.055184   -0.015378   -0.018922    0.006735
 H    y   -0.119270   -0.128855    0.031954    0.018216    0.013010   -0.001245
 H    z    0.051221    0.039650   -0.082849    0.006836   -0.001502    0.009890

 H    x    0.033180   -0.111335    0.025779   -0.054729    0.009151    0.000108
 H    y   -0.022154   -0.045071    0.011929   -0.012514   -0.013311    0.004880
 H    z    0.007110    0.003552    0.007498   -0.002661    0.003108    0.001050


           C    x      C    y      C    z      C    x      C    y      C    z

 C    x    0.665305
 C    y    0.105915    0.735451
 C    z   -0.222573    0.117564    0.387713

 C    x   -0.135436   -0.087418    0.038392    0.529272
 C    y   -0.021960   -0.367455   -0.111890    0.138439    0.683975
 C    z    0.024138   -0.115583   -0.128034   -0.237399    0.151358    0.362113

 H    x    0.007048   -0.032510    0.008753   -0.002435   -0.001543    0.001033
 H    y    0.004863   -0.025114    0.006441   -0.003487    0.002016    0.001953
 H    z   -0.011256   -0.000141    0.004031   -0.003653    0.006354   -0.001296

 H    x   -0.195105    0.082628    0.112173    0.009685   -0.007793   -0.000555
 H    y    0.075525   -0.124287   -0.063579    0.022421   -0.008642   -0.025629
 H    z    0.117531   -0.058495   -0.162304    0.009876   -0.007251    0.003171

 H    x    0.006791    0.002729   -0.005661   -0.160102    0.065081    0.125307
 H    y    0.020423   -0.013954   -0.025989    0.059853   -0.112592   -0.085409
 H    z    0.007176    0.010119   -0.003476    0.139983   -0.095168   -0.167188

 H    x    0.001088   -0.001436    0.000882   -0.248745   -0.122251    0.079288
 H    y   -0.029447   -0.012761    0.015183   -0.118076   -0.145206    0.037196
 H    z   -0.013868   -0.013943    0.005130    0.080039    0.046961   -0.081721

 O    x   -0.022246   -0.035292   -0.002272   -0.055212    0.028639   -0.011711
 O    y   -0.028486   -0.045987    0.006398   -0.030771    0.033067   -0.014295
 O    z    0.008093    0.007917   -0.006744    0.004346   -0.011445    0.004058

 H    x   -0.003312    0.004296    0.000642    0.000971   -0.000482   -0.000021
 H    y    0.000969   -0.003079    0.005067   -0.003206    0.002945   -0.001786
 H    z   -0.005384   -0.001043    0.013625   -0.002176    0.003370   -0.001771

 H    x    0.024532    0.086063   -0.016364    0.047044   -0.053188    0.011241
 H    y    0.015032    0.012069   -0.001639    0.017908   -0.021535    0.023740
 H    z   -0.006206    0.002075   -0.004006   -0.009364    0.017873   -0.000493


           H    x      H    y      H    z      H    x      H    y      H    z

 H    x    0.084308
 H    y   -0.068263    0.320844
 H    z    0.015469   -0.092213    0.057013

 H    x    0.000885   -0.000771   -0.000304    0.206933
 H    y    0.000505    0.000751   -0.000852   -0.075162    0.118798
 H    z   -0.000002   -0.000028    0.000988   -0.134657    0.079202    0.148869

 H    x    0.000314    0.000715    0.001018    0.003784   -0.002765    0.005208
 H    y   -0.000211   -0.000118   -0.000279   -0.002692   -0.004375   -0.003191
 H    z    0.000203    0.000791    0.001319    0.003116   -0.002067    0.008072

 H    x   -0.000860   -0.000555   -0.000323   -0.000692    0.000563   -0.003198
 H    y   -0.000330   -0.000402    0.000210    0.001432    0.000862    0.001944
 H    z   -0.001509   -0.000938    0.000273   -0.003003    0.001944   -0.004178

 O    x   -0.002542   -0.000975   -0.003071    0.001728   -0.000341    0.000734
 O    y   -0.000086    0.001575   -0.003551    0.004531   -0.000703    0.003032
 O    z    0.002046    0.002707    0.011292   -0.001402    0.000911   -0.001601

 H    x    0.000280    0.000458   -0.000832   -0.000605   -0.000930    0.000902
 H    y   -0.001541   -0.000449   -0.002310   -0.000165   -0.000427    0.000095
 H    z   -0.000881   -0.002186   -0.005929   -0.001417   -0.001807    0.001065

 H    x   -0.004089    0.001546    0.009357   -0.003316    0.000510   -0.001879
 H    y   -0.000563    0.001123    0.002331   -0.003604    0.002464   -0.003654
 H    z   -0.000720   -0.000325    0.000028   -0.000103   -0.000528   -0.000568


           H    x      H    y      H    z      H    x      H    y      H    z

 H    x    0.170369
 H    y   -0.071508    0.115440
 H    z   -0.132282    0.105228    0.180963

 H    x   -0.009291   -0.010153    0.003172    0.248660
 H    y    0.012233    0.009783   -0.004159    0.134840    0.151588
 H    z    0.016654    0.013223   -0.002539   -0.088395   -0.041629    0.076057

 O    x    0.001435   -0.004222    0.014113   -0.005101    0.003659   -0.005859
 O    y    0.001099   -0.001725    0.010572   -0.002996    0.003173   -0.001900
 O    z   -0.003058    0.001167    0.000116   -0.001066    0.000078    0.000150

 H    x    0.000082    0.000153   -0.000283    0.000064   -0.000121    0.000054
 H    y    0.000595   -0.000456    0.001272   -0.000398    0.000464   -0.000545
 H    z    0.001454   -0.000930    0.000885   -0.000308    0.000637   -0.000958

 H    x   -0.007580    0.004367   -0.026354    0.007416   -0.002657    0.005493
 H    y   -0.001848    0.003100   -0.014110   -0.001590   -0.000056   -0.004786
 H    z   -0.003129   -0.006763   -0.016007    0.006927   -0.004626    0.001457


           O    x      O    y      O    z      H    x      H    y      H    z

 O    x    0.075005
 O    y   -0.078286    0.273857
 O    z    0.003223   -0.069032    0.103124

 H    x    0.012063    0.007184   -0.001685    0.280733
 H    y   -0.028524   -0.032255    0.014574    0.125579    0.149496
 H    z    0.011305    0.009691    0.008287   -0.060338   -0.049940    0.057740

 H    x    0.096569    0.078018    0.001960   -0.000489    0.007746   -0.000311
 H    y    0.027727   -0.025087   -0.005237    0.001828   -0.000396    0.004060
 H    z    0.017534    0.000285   -0.035903   -0.000357    0.002863    0.000015


           H    x      H    y      H    z

 H    x   -0.138538
 H    y   -0.020221    0.086701
 H    z   -0.009029   -0.017514    0.046929





                                  Dipole moment
                                  -------------

                 au               Debye          C m (/(10**-30)
              1.412973           3.591419          11.979684


                             Dipole moment components
                             ------------------------

                 au               Debye          C m (/(10**-30)

      x      1.26889487         3.22520885        10.75813871
      y     -0.53513911        -1.36018787        -4.53709836
      z      0.31626656         0.80386936         2.68141956


   Units:   1 a.u. =   2.54175 Debye 
            1 a.u. =   8.47835 (10**-30) C m (SI)




   Interatomic separations (in Angstrom):
   --------------------------------------

            C           C           C           C           H           H     
            ------      ------      ------      ------      ------      ------
 C     :    0.000000
 C     :    1.389998    0.000000
 C     :    2.344629    1.389999    0.000000
 C     :    2.961344    2.465647    1.389997    0.000000
 H     :    2.252255    1.089430    2.094578    3.281163    0.000000
 H     :    3.202366    2.104427    1.088914    2.143644    2.430536    0.000000
 H     :    2.876399    2.775310    2.173354    1.086252    3.654130    3.121763
 H     :    3.997100    3.434854    2.154758    1.086123    4.159087    2.472514
 O     :    1.389998    2.482773    2.808421    2.891683    3.510461    3.696494
 H     :    1.084537    2.178689    3.361254    4.010529    2.683550    4.154236
 H     :    1.934548    2.193990    1.814219    1.506709    3.266413    2.744551

            H           H           O           H           H     
            ------      ------      ------      ------      ------
 H     :    0.000000
 H     :    1.854818    0.000000
 O     :    2.619153    3.787501    0.000000
 H     :    3.808873    5.063699    2.041243    0.000000
 H     :    1.447811    2.373605    1.416070    2.950291    0.000000


  Max    interatomic separation is    5.0637 Angstrom (    9.5690 Bohr)
  between atoms   10 and    8, "H     " and "H     ".

  Min HX interatomic separation is    1.0845 Angstrom (    2.0495 Bohr)

  Min YX interatomic separation is    1.3900 Angstrom (    2.6267 Bohr)


  Bond distances (Angstrom):
  --------------------------

                  atom 1     atom 2       distance
                  ------     ------       --------
  bond distance:  C          C            1.389998
  bond distance:  C          C            1.389999
  bond distance:  C          C            1.389997
  bond distance:  H          C            1.089430
  bond distance:  H          C            1.088914
  bond distance:  H          C            1.086252
  bond distance:  H          C            1.086123
  bond distance:  O          C            1.389998
  bond distance:  H          C            1.084537


  Bond angles (degrees):
  ----------------------

                  atom 1     atom 2     atom 3         angle
                  ------     ------     ------         -----
  bond angle:     C          C          O            126.527
  bond angle:     C          C          H            122.916
  bond angle:     O          C          H            110.550
  bond angle:     C          C          C            115.000
  bond angle:     C          C          H            130.172
  bond angle:     C          C          H            114.757
  bond angle:     C          C          C            124.979
  bond angle:     C          C          H            115.658
  bond angle:     C          C          H            119.212
  bond angle:     C          C          H            122.251
  bond angle:     C          C          H            120.473
  bond angle:     H          C          H            117.259




 CPU time statistics for ABACUS
 ------------------------------

 TWOTEX     00:00:05      38 %
 RHSIDE     00:00:05      37 %
 RESPON     00:00:03      23 %

 TOTAL      00:00:13     100 %


  Total CPU  time used in ABACUS:  13.33 seconds
  Total wall time used in ABACUS:  13.33 seconds


                   .-------------------------------------------.
                   | End of Static Property Section (ABACUS) - |
                   `-------------------------------------------'

Initial Hessian is analytical Hessian

Initial Hessian has been calculated in redundant internal coordinates.



           :::::::::::::::::::::::::::::::::::::::::::::::::::::::::::
           ::::::::::::::: Optimization Control Center :::::::::::::::
           :::::::::::::::::::::::::::::::::::::::::::::::::::::::::::



                                Next geometry (au)
                                ------------------

 C         -3.6980559070           -1.4428355334            0.0310354546
 C         -1.2897188719           -2.4609461501            0.2424716433
 C          0.7259062953           -0.9079525368           -0.5115829812
 C          1.0543148039            1.6036231374            0.2395077106
 H         -0.8222950386           -4.3656289195            0.7896728902
 H          2.1580660999           -1.7429122897           -1.7124917456
 H         -0.1901747347            2.4214208341            1.6726409078
 H          2.6317070558            2.7093773036           -0.3937856043
 O         -4.2950521562            0.7592739545           -0.7994665984
 H         -5.3224904432           -2.6174570610            0.4751390672
 H         -1.2772738079            1.6441501296           -0.7528240414





                             Optimization information
                             ------------------------

 Iteration number               :       0
 End of optimization            :       F 
 Energy at this geometry is     :    -229.557515334650
 Norm of gradient               :       0.184410609461
 Norm of step                   :       0.499999999679
 Updated trust radius           :       0.500000000000
 Total effective Hessian index  :       2




 **************************************************************************************
 ****************** Output of molecule and basis set info suppressed ******************
 **************************************************************************************



                     .---------------------------------------.
                     | Starting in Integral Section (HERMIT) |
                     `---------------------------------------'



 ***************************************************************************************
 ****************** Output from **INTEGRALS input processing (HERMIT) ******************
 ***************************************************************************************


 - Using defaults, no **INTEGRALS input found

 Default print level:       -1

 Calculation of one- and two-electron Hamiltonian integrals.

 Center of mass  (bohr):     -1.570977371021     -0.404317155172     -0.181195257805
 Operator center (bohr):      0.000000000000      0.000000000000      0.000000000000
 Gauge origin    (bohr):      0.000000000000      0.000000000000      0.000000000000
 Dipole origin   (bohr):      0.000000000000      0.000000000000      0.000000000000


                      Nuclear contribution to dipole moments
                      --------------------------------------

                 au               Debye          C m (/(10**-30)

      x    -56.42820020      -143.42616950      -478.41820457
      y    -15.12552486       -38.44524698      -128.23954022
      z     -6.30879035       -16.03534458       -53.48815205


  Total CPU  time used in HERMIT:   0.05 seconds
  Total wall time used in HERMIT:   0.05 seconds


                        .----------------------------------.
                        | End of Integral Section (HERMIT) |
                        `----------------------------------'



                   .--------------------------------------------.
                   | Starting in Wave Function Section (SIRIUS) |
                   `--------------------------------------------'

* Read MO coefficients from SIRIUS.RST with label "NEWORB  " and header info: 28Mar24  FOCKDIIS

 **********************************************************************
 *SIRIUS* a direct, restricted step, second order MCSCF program       *
 **********************************************************************

 (Wave function specification suppressed here, see output above for initial geometry.)


 ***********************************************
 ***** DIIS acceleration of SCF iterations *****
 ***********************************************

 C1-DIIS algorithm; max error vectors =    8

 Iter      Total energy        Error norm    Delta(E)  DIIS dim.
 -----------------------------------------------------------------------------

Calculating AOSUPINT

---> (Re)generating AOTWOINT

 Threshold for neglecting two-electron integrals:  1.00D-12
 HERMIT - Number of two-electron integrals written:     1326269 ( 97.0% )
 HERMIT - Megabytes written:                             15.190

  Time used in TWOINT     is       0.48 seconds
  CPU  time used in MAKE_AOTWOINT is   0.48 seconds
  WALL time used in MAKE_AOTWOINT is   0.48 seconds
     (Precalculated AO two-electron integrals are transformed to P-supermatrix elements.
      Threshold for discarding integrals :  1.00D-12 )
@  1    -229.531829257        4.68238D-01    2.57D-02    1
      Virial theorem: -V/T =      1.999729
@    MULPOP   C       0.24; C      -0.36; C      -0.09; C      -0.49; H       0.23; H       0.22; H       0.25; H       0.21; O      -0.77; H       0.19; 
@             H       0.37; 
 -----------------------------------------------------------------------------
@  2    -229.560080597        1.62587D-01   -2.83D-02    2
      Virial theorem: -V/T =      1.999597
@    MULPOP   C       0.26; C      -0.38; C      -0.04; C      -0.60; H       0.22; H       0.23; H       0.28; H       0.22; O      -0.73; H       0.18; 
@             H       0.35; 
 -----------------------------------------------------------------------------
@  3    -229.566571115        8.25088D-02   -6.49D-03    3
      Virial theorem: -V/T =      1.999645
@    MULPOP   C       0.30; C      -0.39; C      -0.05; C      -0.57; H       0.22; H       0.23; H       0.28; H       0.22; O      -0.74; H       0.18; 
@             H       0.34; 
 -----------------------------------------------------------------------------
@  4    -229.568500340        5.28209D-02   -1.93D-03    4
      Virial theorem: -V/T =      1.999755
@    MULPOP   C       0.29; C      -0.39; C      -0.04; C      -0.59; H       0.22; H       0.23; H       0.28; H       0.22; O      -0.72; H       0.17; 
@             H       0.34; 
 -----------------------------------------------------------------------------
@  5    -229.569913207        2.46774D-02   -1.41D-03    5
      Virial theorem: -V/T =      1.999585
@    MULPOP   C       0.30; C      -0.40; C      -0.04; C      -0.59; H       0.22; H       0.23; H       0.28; H       0.22; O      -0.72; H       0.17; 
@             H       0.34; 
 -----------------------------------------------------------------------------
@  6    -229.570231029        1.24987D-02   -3.18D-04    6
      Virial theorem: -V/T =      1.999680
@    MULPOP   C       0.30; C      -0.40; C      -0.04; C      -0.59; H       0.22; H       0.22; H       0.27; H       0.21; O      -0.71; H       0.18; 
@             H       0.33; 
 -----------------------------------------------------------------------------
@  7    -229.570271707        3.45704D-03   -4.07D-05    7
      Virial theorem: -V/T =      1.999646
@    MULPOP   C       0.30; C      -0.40; C      -0.04; C      -0.59; H       0.21; H       0.22; H       0.27; H       0.21; O      -0.71; H       0.18; 
@             H       0.33; 
 -----------------------------------------------------------------------------
@  8    -229.570276027        1.31800D-03   -4.32D-06    8
      Virial theorem: -V/T =      1.999635
@    MULPOP   C       0.30; C      -0.40; C      -0.04; C      -0.59; H       0.22; H       0.22; H       0.27; H       0.21; O      -0.71; H       0.18; 
@             H       0.33; 
 -----------------------------------------------------------------------------
@  9    -229.570276663        3.31607D-04   -6.35D-07    8
      Virial theorem: -V/T =      1.999639
@    MULPOP   C       0.30; C      -0.40; C      -0.04; C      -0.59; H       0.22; H       0.22; H       0.27; H       0.21; O      -0.71; H       0.18; 
@             H       0.33; 
 -----------------------------------------------------------------------------
@ 10    -229.570276693        1.03937D-04   -3.09D-08    8
      Virial theorem: -V/T =      1.999639
@    MULPOP   C       0.30; C      -0.40; C      -0.04; C      -0.59; H       0.22; H       0.22; H       0.27; H       0.21; O      -0.71; H       0.18; 
@             H       0.33; 
 -----------------------------------------------------------------------------
@ 11    -229.570276695        3.20867D-05   -2.00D-09    8
      Virial theorem: -V/T =      1.999639
@    MULPOP   C       0.30; C      -0.40; C      -0.04; C      -0.59; H       0.22; H       0.22; H       0.27; H       0.21; O      -0.71; H       0.18; 
@             H       0.33; 
 -----------------------------------------------------------------------------
@ 12    -229.570276696        1.03572D-05   -2.06D-10    8
      Virial theorem: -V/T =      1.999639
@    MULPOP   C       0.30; C      -0.40; C      -0.04; C      -0.59; H       0.22; H       0.22; H       0.27; H       0.21; O      -0.71; H       0.18; 
@             H       0.33; 
 -----------------------------------------------------------------------------
@ 13    -229.570276696        5.37310D-06   -1.53D-11    8

@ *** DIIS converged in  13 iterations !
@     Converged SCF energy, gradient:   -229.570276695678    5.37D-06
    - total time used in SIRFCK :              0.00 seconds


 *** SCF orbital energy analysis ***

 Only the 20 lowest virtual orbital energies printed in each symmetry.

 Number of electrons :   38
 Orbital occupations :   19

 Sym       Hartree-Fock orbital energies

1 A     -20.52899865   -11.32679592   -11.32038020   -11.26599707   -11.21652967
         -1.34963841    -1.14015868    -1.00100451    -0.85916626    -0.76716432
         -0.70209125    -0.64741585    -0.61538808    -0.58824103    -0.54366919
         -0.52493612    -0.49160004    -0.39680683    -0.30455069     0.07774188
          0.21369430     0.22335839     0.26447244     0.27453694     0.28814562
          0.31655740     0.32256459     0.41688736     0.45495996     0.54851880
          0.56539751     0.72990153     0.73449140     0.78225454     0.79524271
          0.82653742     0.84639950     0.86619807     0.89770652

    E(LUMO) :     0.07774188 au (symmetry 1)
  - E(HOMO) :    -0.30455069 au (symmetry 1)
  ------------------------------------------
    gap     :     0.38229257 au

 --- Writing SIRIFC interface file

 CPU and wall time for SCF :       0.644       0.644


                       .-----------------------------------.
                       | --- Final results from SIRIUS --- |
                       `-----------------------------------'


@    Spin multiplicity:           1
@    Spatial symmetry:            1 ( irrep  A   in C1  )
@    Total charge of molecule:    0

@    Final HF energy:            -229.570276695678                 
@    Nuclear repulsion:           163.498281894282
@    Electronic energy:          -393.068558589960

@    Final gradient norm:           0.000005373101

 
     Date and time (Linux)  : Thu Mar 28 10:18:13 2024
     Host name              : pc-157-10                               

  Total CPU  time used in SIRIUS :   0.65 seconds
  Total wall time used in SIRIUS :   0.65 seconds

 
     Date and time (Linux)  : Thu Mar 28 10:18:13 2024
     Host name              : pc-157-10                               


                     .---------------------------------------.
                     | End of Wave Function Section (SIRIUS) |
                     `---------------------------------------'

 Trust radius increased due to good ratio.
 Updated trust radius   0.60000

 Center of mass dipole origin  :   -1.570977   -0.404317   -0.181195

 Center of mass gauge origin   :   -1.570977   -0.404317   -0.181195


                 .------------------------------------------------.
[...]
   11 bend      0.014098    0.004175   -0.062579    0.003243    0.000206
   12 bend     -0.026493   -0.002828    0.026871   -0.002295   -0.000143
   13 bend      0.012448   -0.001305    0.035869   -0.001083   -0.000165
   14 bend     -0.043867   -0.010521    0.033059   -0.028816   -0.001304
   15 bend      0.019100    0.001929   -0.037009   -0.000686   -0.000986
   16 bend      0.025525    0.009482    0.002422    0.032596    0.002095
   17 bend      0.020377   -0.013911   -0.002432    0.062495    0.004733
   18 bend     -0.026577   -0.010336    0.002152   -0.027434   -0.002211
   19 bend      0.007024    0.026124    0.000195   -0.035967   -0.005093
   20 bend      0.000851    0.044470    0.001315   -0.028831   -0.002946
   21 bend     -0.003560   -0.034159    0.000289    0.038873    0.032087
   22 bend      0.004550    0.024553    0.005832   -0.026672    0.020583
   23 bend      0.001152   -0.012994   -0.001604   -0.000780   -0.037073
   24 bend     -0.000215    0.026495    0.001558   -0.007184   -0.015088
   25 bend     -0.001382   -0.024704   -0.007076    0.004678   -0.006034
   26 tors     -0.007763    0.011184    0.011651   -0.020545   -0.018271
   27 tors     -0.013714   -0.004021    0.012174   -0.010365   -0.000479
   28 tors     -0.001990    0.014942    0.001574   -0.005928    0.015101
   29 tors     -0.003696    0.006095    0.000937    0.006607   -0.010720
   30 tors     -0.004091   -0.029523   -0.003194    0.017089    0.021822
   31 tors      0.009525    0.005540   -0.012483    0.016924   -0.000879
   32 tors      0.010900    0.005783   -0.008072    0.015678   -0.001763
   33 tors     -0.002096    0.014597   -0.000239   -0.009942   -0.019174
   34 tors      0.002511    0.000751   -0.007753    0.000287   -0.000560
   35 tors      0.003885    0.000993   -0.003342   -0.000958   -0.001444
   36 tors     -0.008047   -0.000608    0.000284    0.000238   -0.001382
   37 tors      0.000948    0.026898    0.001219   -0.015243   -0.002717
   38 tors     -0.000759    0.018050    0.000582   -0.002707   -0.028537
   39 tors     -0.001153   -0.017567   -0.003549    0.007775    0.004004

                6  1800     7  1721     8  1676     9  1657    10  1609 
  ----------------------------------------------------------------------

    1 stre      0.021269    0.214709    0.204788   -0.118237    0.085955
    2 stre     -0.024766   -0.224437   -0.005370    0.102026    0.117339
    3 stre      0.016157    0.008237    0.012798   -0.007835    0.011130
    4 stre      0.083624    0.084163   -0.302448    0.062583   -0.017027
    5 stre      0.009458    0.015068   -0.002201   -0.004329    0.006397
    6 stre     -0.118262   -0.138993    0.091632   -0.146498   -0.124103
    7 stre      0.002725    0.001139   -0.010204   -0.005879   -0.006139
    8 stre     -0.006184   -0.008602   -0.002099   -0.000026   -0.000377
    9 stre      0.002665   -0.002741    0.008299    0.009267   -0.014695
   10 stre      0.314371    0.057465    0.262684   -0.119617   -0.220183
   11 bend     -0.012936    0.033851   -0.088786    0.017517   -0.056317
   12 bend     -0.046745   -0.313364    0.016389    0.161873    0.144077
   13 bend      0.059101    0.283031    0.073129   -0.180067   -0.089254
   14 bend     -0.012785   -0.119096    0.031330    0.002274   -0.010919
   15 bend      0.000474    0.046050   -0.259333   -0.030351   -0.343125
   16 bend      0.013881    0.077387    0.231368    0.027562    0.357068
   17 bend     -0.004339    0.045360    0.072953   -0.003064    0.049189
   18 bend     -0.099918   -0.219921    0.145946   -0.055594   -0.292022
   19 bend      0.101654    0.180723   -0.221093    0.064051    0.244303
   20 bend      0.100501    0.053294   -0.012845    0.221298   -0.008711
   21 bend      0.067477    0.027702    0.202860    0.254067   -0.090559
   22 bend      0.339865   -0.092229   -0.051792   -0.037823    0.033628
   23 bend     -0.131575   -0.131857   -0.171364   -0.590764    0.141425
   24 bend     -0.039453    0.122378    0.085838    0.264657   -0.175313
   25 bend     -0.356601    0.067794   -0.094525   -0.030583    0.075555
   26 tors     -0.008209   -0.011382    0.006705   -0.001136    0.004895
   27 tors     -0.000284   -0.069105    0.042961   -0.043360   -0.027235
   28 tors      0.041075    0.067591    0.027162    0.241197   -0.112661
   29 tors      0.039447   -0.055673   -0.015202   -0.154555    0.002367
   30 tors     -0.091407   -0.026184   -0.042615   -0.048648    0.068086
   31 tors      0.017835    0.011708   -0.007123   -0.002045    0.017655
   32 tors      0.017590    0.063716    0.005146   -0.022001   -0.001867
   33 tors     -0.002653    0.011135   -0.028731   -0.008570   -0.047825
   34 tors      0.009864   -0.016857   -0.061196   -0.005244   -0.057747
   35 tors      0.009619    0.035150   -0.048927   -0.025200   -0.077270
   36 tors      0.005273   -0.046588    0.007525   -0.050794   -0.079955
   37 tors      0.013812    0.088397    0.025455    0.272782   -0.130800
   38 tors      0.012184   -0.034867   -0.016909   -0.122970   -0.015772
   39 tors     -0.118670   -0.005377   -0.044322   -0.017064    0.049947

               11  1501    12  1420    13  1369    14  1245    15  1213 
  ----------------------------------------------------------------------

    1 stre      0.020727    0.056556   -0.036696   -0.003352    0.177084
    2 stre      0.016889   -0.207189   -0.025793    0.080730    0.092621
    3 stre      0.004817   -0.008437    0.000714   -0.001884    0.008329
    4 stre     -0.023675   -0.048282    0.078749   -0.075581    0.018142
    5 stre     -0.000742   -0.005424   -0.001128   -0.003904    0.007833
    6 stre     -0.000736   -0.032516   -0.192489   -0.091692   -0.097097
    7 stre     -0.001662   -0.002602   -0.009306   -0.004092   -0.001107
    8 stre      0.023028    0.005153   -0.006035   -0.000675   -0.006298
    9 stre     -0.002772   -0.004697   -0.012426   -0.009990   -0.000910
   10 stre     -0.296892   -0.007976   -0.079360   -0.015324   -0.047230
   11 bend     -0.022215    0.054170    0.029764    0.004392   -0.091136
   12 bend     -0.193154    0.265485   -0.059896    0.012563    0.136848
   13 bend      0.217270   -0.325749    0.028903   -0.014743   -0.049723
   14 bend      0.011977   -0.037405   -0.050113   -0.022584   -0.000995
   15 bend      0.059085    0.069752   -0.099442    0.240976    0.146905
   16 bend     -0.072762   -0.020879    0.152396   -0.190315   -0.174122
   17 bend     -0.001842    0.025965    0.068166    0.104885   -0.006164
   18 bend      0.075282   -0.003307    0.243625   -0.208354    0.116198
   19 bend     -0.079994   -0.031116   -0.311506    0.079186   -0.090154
   20 bend      0.168152    0.046327   -0.169533   -0.234745    0.097295
   21 bend      0.141877    0.073519    0.111598    0.232971   -0.154826
   22 bend      0.087413    0.037653    0.015014   -0.021020    0.033980
   23 bend     -0.248524   -0.043489    0.107374    0.083323   -0.005172
   24 bend     -0.354730   -0.209901   -0.075152   -0.061433    0.056621
   25 bend      0.138102    0.030988   -0.088566   -0.151265    0.062592
   26 tors     -0.006553   -0.026831   -0.041729   -0.093303    0.067221
   27 tors      0.044903    0.033161   -0.013721    0.063540   -0.057879
   28 tors     -0.104395   -0.107017   -0.032104   -0.024241    0.024888
   29 tors     -0.117599   -0.018006    0.079250    0.122119   -0.064299
   30 tors      0.242217    0.107862    0.053392    0.067305   -0.060900
   31 tors      0.001961    0.030178    0.032366    0.064814   -0.033258
   32 tors      0.035259   -0.047413    0.024078    0.082459   -0.070956
   33 tors     -0.001579    0.026777   -0.050577    0.051846   -0.007016
   34 tors      0.021086   -0.006241   -0.004982    0.000458    0.097878
   35 tors      0.054384   -0.083832   -0.013271    0.018102    0.060180
   36 tors      0.049877    0.086769   -0.022569    0.208689   -0.132116
   37 tors     -0.142005   -0.165339   -0.007538   -0.210856    0.171838
   38 tors     -0.155209   -0.076328    0.103816   -0.064495    0.082651
   39 tors      0.204606    0.049540    0.077958   -0.119310    0.086050

               16  1190    17  1135    18  1093    19  1012    20   940 
  ----------------------------------------------------------------------

    1 stre     -0.005221   -0.007638   -0.101629    0.013362    0.001464
    2 stre     -0.001003   -0.016220   -0.044660    0.025920   -0.031634
    3 stre     -0.002405   -0.004860   -0.005715    0.001527    0.002618
    4 stre     -0.031427    0.006210   -0.171975    0.034026    0.035308
    5 stre      0.000294    0.001258   -0.013624   -0.000168    0.000338
    6 stre     -0.005342   -0.012179   -0.135787   -0.020847   -0.022551
    7 stre     -0.003195    0.000625   -0.010398    0.001289    0.001538
    8 stre     -0.010757    0.001891   -0.009080   -0.017649   -0.005055
    9 stre     -0.006640   -0.000440   -0.004882   -0.003754   -0.005121
   10 stre      0.047444   -0.024877   -0.022819   -0.063354   -0.085319
   11 bend      0.029488    0.007716   -0.030516    0.024170   -0.129198
   12 bend     -0.006839    0.075407   -0.039285   -0.013954    0.055617
   13 bend     -0.015037   -0.001488    0.068040    0.001483    0.064299
   14 bend     -0.048649   -0.017150    0.069243   -0.014056    0.131040
   15 bend      0.008420   -0.033367   -0.002842    0.052055   -0.080781
   16 bend     -0.018359   -0.032121   -0.039485    0.054687   -0.089654
   17 bend      0.042379   -0.012930   -0.010448    0.008597   -0.109730
   18 bend      0.001903    0.014570    0.008109    0.034731    0.001703
   19 bend      0.040673   -0.011708    0.008250   -0.068786    0.085606
   20 bend      0.118306   -0.001260    0.127152    0.230553    0.000960
   21 bend      0.108706   -0.023198   -0.158533    0.000867    0.124494
   22 bend     -0.065877    0.015609    0.020386   -0.046982   -0.013287
   23 bend      0.095884   -0.004979    0.015641    0.066570    0.039937
   24 bend     -0.114102    0.010288    0.050545   -0.056942   -0.019629
   25 bend     -0.264411    0.019830    0.027198   -0.244551   -0.220950
   26 tors      0.180763    0.107840    0.003685   -0.006301   -0.013427
   27 tors     -0.392845    0.176371   -0.036896    0.171131    0.127797
   28 tors     -0.305500    0.001202    0.052784   -0.192746   -0.013599
   29 tors      0.182303   -0.041755    0.037302    0.248877    0.232512
   30 tors     -0.149705   -0.018206   -0.020790   -0.116469    0.015163
   31 tors     -0.088800   -0.211524    0.017392    0.006430    0.004909
   32 tors     -0.025345    0.482623    0.007870    0.105968   -0.068535
   33 tors     -0.028877   -0.195535    0.100817    0.336215   -0.168176
   34 tors      0.121542    0.085952   -0.070858   -0.330377    0.159284
   35 tors      0.184996    0.780099   -0.080380   -0.230839    0.085840
   36 tors     -0.602485   -0.127003    0.060236    0.513647   -0.026952
   37 tors      0.274844   -0.066104    0.094039   -0.363472   -0.165746
   38 tors      0.762647   -0.109062    0.078557    0.078151    0.080365
   39 tors      0.430639   -0.085512    0.020465   -0.287195   -0.136984

               21   872    22   775    23   580    24   561    25   483 
  ----------------------------------------------------------------------

    1 stre      0.001663    0.009439    0.010408   -0.011017    0.004429
    2 stre     -0.008394    0.009714    0.016130    0.000337   -0.001999
    3 stre     -0.000856   -0.002078   -0.002172   -0.001276   -0.000159
    4 stre      0.020966   -0.010805   -0.010353    0.004464    0.003658
    5 stre     -0.001879    0.000895    0.000413   -0.000855    0.000692
    6 stre      0.032515    0.021941   -0.009000   -0.004964   -0.005826
    7 stre      0.003559    0.001885   -0.000794   -0.001991    0.001397
    8 stre      0.010206   -0.000257    0.002370   -0.003173   -0.000603
    9 stre      0.001922    0.002179   -0.001697   -0.002514    0.000879
   10 stre     -0.027843   -0.033164    0.007722   -0.147493    0.044319
   11 bend     -0.051954    0.065942    0.073612   -0.017716    0.022359
   12 bend      0.069040   -0.033738   -0.041372    0.015664   -0.023889
   13 bend      0.001028   -0.041834   -0.028475    0.000542    0.000431
   14 bend      0.027059   -0.047962    0.010918   -0.084946   -0.009756
   15 bend      0.047505   -0.004265   -0.025157    0.030926   -0.022783
   16 bend      0.032958    0.035094    0.025433    0.021397   -0.015824
   17 bend     -0.025766    0.018727   -0.110791    0.008947   -0.006840
   18 bend      0.004611   -0.008218    0.055168    0.004851   -0.010087
   19 bend      0.040772   -0.040279    0.057259   -0.012549    0.012139
   20 bend     -0.096744    0.081749   -0.052749   -0.000849   -0.011521
   21 bend      0.013000   -0.066940    0.027842    0.004672    0.005618
   22 bend      0.027183    0.028479    0.124232    0.011821    0.000374
   23 bend     -0.009202    0.003519   -0.011539    0.009449    0.009153
   24 bend      0.091912    0.128867   -0.066057    0.021205    0.067634
   25 bend     -0.009014   -0.126415   -0.043716   -0.049360   -0.066332
   26 tors     -0.030316   -0.143974   -0.038110    0.133941    0.199127
   27 tors     -0.166121    0.059858   -0.055749    0.126834    0.230052
   28 tors      0.252951    0.302705    0.033775   -0.100393    0.069949
   29 tors      0.119776    0.329737   -0.021629   -0.078155    0.078104
   30 tors      0.140613    0.139166    0.047952   -0.130193   -0.005784
   31 tors      0.015571    0.157075   -0.055008   -0.121407   -0.229923
   32 tors      0.169886    0.071664   -0.025479   -0.134149   -0.239319
   33 tors      0.365229   -0.206978   -0.002389    0.021282    0.020984
   34 tors     -0.369907    0.211469   -0.099185   -0.009636   -0.056371
   35 tors     -0.215593    0.126059   -0.069657   -0.022378   -0.065767
   36 tors      0.229423   -0.003146   -0.020028    0.014175    0.051909
   37 tors      0.387649    0.098346    0.051113   -0.091469    0.036330
   38 tors      0.254474    0.125378   -0.004291   -0.069231    0.044485
   39 tors      0.275311   -0.065193    0.065291   -0.121270   -0.039403

               26   348    27  2252i
  ----------------------------------

    1 stre     -0.010185    0.069796
    2 stre      0.002769   -0.077580
    3 stre     -0.000378    0.015332
    4 stre      0.003090   -0.064557
    5 stre      0.000138    0.001309
    6 stre      0.004975    0.072529
    7 stre      0.000136   -0.001742
    8 stre     -0.000308    0.010744
    9 stre      0.001451    0.003867
   10 stre      0.018103   -0.836982
   11 bend     -0.029705    0.009131
   12 bend      0.022078   -0.042560
   13 bend      0.010228    0.032043
   14 bend      0.000074   -0.000341
   15 bend      0.012704   -0.010172
   16 bend     -0.010917    0.008870
   17 bend      0.042748   -0.014936
   18 bend     -0.026343    0.021027
   19 bend     -0.023094   -0.001464
   20 bend      0.024019   -0.053435
   21 bend     -0.020283   -0.023849
   22 bend      0.001908    0.099856
   23 bend     -0.006217   -0.025696
   24 bend     -0.050975    0.195982
   25 bend      0.055486   -0.138953
   26 tors     -0.124180   -0.021468
   27 tors     -0.076615   -0.052570
   28 tors      0.103800    0.148231
   29 tors      0.097906   -0.005420
   30 tors      0.159002   -0.120154
   31 tors     -0.072906   -0.002252
   32 tors     -0.049880   -0.011555
   33 tors     -0.115143   -0.029258
   34 tors     -0.077489    0.001937
   35 tors     -0.054463   -0.007366
   36 tors     -0.067579   -0.060360
   37 tors      0.055236    0.181973
   38 tors      0.049342    0.028322
   39 tors      0.110438   -0.086411



  Dipole Gradient in Normal Coordinate Basis (D/(A*amu**(1/2)))
  -------------------------------------------------------------


  mode           dMA/dQi        dMB/dQi        dMC/dQi
  ----------------------------------------------------
   1           -0.108763      -0.486468       0.044622
   2           -0.589582      -0.422055       0.288967
   3           -0.747389      -0.330211      -0.006115
   4           -0.431236       0.410501       0.106810
   5            0.002666      -0.007538       0.071266
   6           -0.339613       1.379070      -0.429347
   7           -1.291502       0.691499      -0.071231
   8           -2.729549      -0.558300      -0.177510
   9            1.550339      -0.037911       0.237349
  10            0.052503      -0.106579       0.340044
  11            0.013931       0.366479       0.787732
  12           -1.375682       1.359724       0.221444
  13            0.979903       0.957937       0.046522
  14            0.489643      -0.124844       0.047532
  15           -0.220282      -0.229370      -0.061727
  16           -0.340405       0.362669      -0.339910
  17           -0.208990       0.188448      -0.380840
  18           -0.063265       0.073799       0.291427
  19            0.740071       0.670108      -0.402388
  20           -0.426461       0.543953      -0.760505
  21           -0.691569      -0.575652       1.318554
  22           -0.373189      -0.053621       0.005675
  23            0.108717      -0.108299       0.066364
  24           -0.114772       0.060827      -0.559925
  25            0.229851       0.011883      -0.566557
  26           -0.187260       0.033634      -0.318763
  27            1.448449      -1.946188       0.454022



                              Total Molecular Energy
                              ----------------------

             electronic     vibrational           total    energy 

            -229.625459        0.093150     -229.532309    Hartrees
           -50396962.57        20444.06    -50376518.51    cm-1
             -602881.55          244.57      -602636.99    kJ/mol
             -144092.15           58.45      -144033.70    kcal/mol


                          Molecular Partition Functions
                          -----------------------------

 Qtran is evaluated per mol at 1 atm. pressure.
 Qrot does not include symmetry numbers.
 Qvib does not include zero point energies
 (i.e., energy scale has vibrational ground state as zero).


 Temp.(K)  Translational     Rotational    Vibrational      Total

    50.00     2.6535D+05        4640.37         1.0000   1.231398D+09
   100.00     1.5011D+06       13117.74         1.0083   1.985413D+10
   200.00     8.4913D+06       37092.38         1.1725   3.692910D+11
   273.15     1.8510D+07       59198.33         1.5072   1.651513D+12
   298.15     2.3040D+07       67507.58         1.6832   2.617969D+12
   300.00     2.3399D+07       68136.79         1.6977   2.706811D+12
   400.00     4.8034D+07      104898.65         2.9440   1.483408D+13
   500.00     8.3912D+07      146596.28         5.8358   7.178689D+13
   600.00     1.3237D+08      192702.28        12.6805   3.234448D+14
   700.00     1.9460D+08      242829.45        29.2116   1.380391D+15
   800.00     2.7172D+08      296677.77        69.6212   5.612441D+15
   900.00     3.6476D+08      354005.87       168.7546   2.179077D+16
  1000.00     4.7468D+08      414614.08       411.1380   8.091556D+16
  1500.00     1.3081D+09      761680.72     31030.9354   3.091693D+19
  2000.00     2.6852D+09     1172673.43   1573020.9808   4.953212D+21


 CPU time statistics for ABACUS
 ------------------------------

 TWOTEX     00:00:05      54 %
 RESPON     00:00:03      35 %
 REST       00:00:02      22 %

 TOTAL      00:00:10     100 %


  Total CPU  time used in ABACUS:   9.62 seconds
  Total wall time used in ABACUS:   9.62 seconds


                   .-------------------------------------------.
                   | End of Static Property Section (ABACUS) - |
                   `-------------------------------------------'

  Total CPU  time used in DALTON:  1 minute  16 seconds
  Total wall time used in DALTON:  1 minute  16 seconds

 
     Date and time (Linux)  : Thu Mar 28 10:19:14 2024
     Host name              : pc-157-10                               
