

     ************************************************************************
     *************** Dalton - An Electronic Structure Program ***************
     ************************************************************************

    This is output from DALTON release Dalton2022.0-dev (2022)
         ( Web site: http://daltonprogram.org )

   ----------------------------------------------------------------------------

    NOTE:
     
    Dalton is an experimental code for the evaluation of molecular
    properties using (MC)SCF, DFT, CI, and CC wave functions.
    The authors accept no responsibility for the performance of
    the code or for the correctness of the results.
     
    The code (in whole or part) is provided under a licence and
    is not to be reproduced for further distribution without
    the written permission of the authors or their representatives.
     
    See the home page "http://daltonprogram.org" for further information.
     
    If results obtained with this code are published,
    the appropriate citations would be both of:
     
       K. Aidas, C. Angeli, K. L. Bak, V. Bakken,
       R. Bast, L. Boman, O. Christiansen, R. Cimiraglia,
       S. Coriani, P. Dahle, E. K. Dalskov, U. Ekstroem,
       T. Enevoldsen, J. J. Eriksen, P. Ettenhuber, B. Fernandez,
       L. Ferrighi, H. Fliegl, L. Frediani, K. Hald, A. Halkier,
       C. Haettig, H. Heiberg, T. Helgaker, A. C. Hennum,
       H. Hettema, E. Hjertenaes, S. Hoest, I.-M. Hoeyvik,
       M. F. Iozzi, B. Jansik, H. J. Aa. Jensen, D. Jonsson,
       P. Joergensen, J. Kauczor, S. Kirpekar,
       T. Kjaergaard, W. Klopper, S. Knecht, R. Kobayashi, H. Koch,
       J. Kongsted, A. Krapp, K. Kristensen, A. Ligabue,
       O. B. Lutnaes, J. I. Melo, K. V. Mikkelsen, R. H. Myhre,
       C. Neiss, C. B. Nielsen, P. Norman, J. Olsen,
       J. M. H. Olsen, A. Osted, M. J. Packer, F. Pawlowski,
       T. B. Pedersen, P. F. Provasi, S. Reine, Z. Rinkevicius,
       T. A. Ruden, K. Ruud, V. Rybkin, P. Salek, C. C. M. Samson,
       A. Sanchez de Meras, T. Saue, S. P. A. Sauer,
       B. Schimmelpfennig, K. Sneskov, A. H. Steindal,
       K. O. Sylvester-Hvid, P. R. Taylor, A. M. Teale,
       E. I. Tellgren, D. P. Tew, A. J. Thorvaldsen, L. Thoegersen,
       O. Vahtras, M. A. Watson, D. J. D. Wilson, M. Ziolkowski
       and H. Agren,
       "The Dalton quantum chemistry program system",
       WIREs Comput. Mol. Sci. 2014, 4:269-284 (doi: 10.1002/wcms.1172)
     
    and
     
       Dalton, a molecular electronic structure program,
       Release Dalton2022.0-dev (2022), see http://daltonprogram.org
   ----------------------------------------------------------------------------

    Authors in alphabetical order (Major contribution(s) in parenthesis):

  Kestutis Aidas,              Vilnius University,        Lithuania   (QM/MM)
  Celestino Angeli,            University of Ferrara,     Italy       (NEVPT2)
  Juan J. Aucar,               Northeast National UniversiArgentina   (LRESC, Relativistic Effects on EFG)
  Keld L. Bak,                 UNI-C,                     Denmark     (AOSOPPA, non-adiabatic coupling, magnetic properties)
  Vebjoern Bakken,             University of Oslo,        Norway      (DALTON; geometry optimizer, symmetry detection)
  Radovan Bast,                UiT The Arctic U. of NorwayNorway      (DALTON installation and execution frameworks)
  Pablo Baudin,                University of Valencia,    Spain       (Cholesky excitation energies)
  Linus Boman,                 NTNU,                      Norway      (Cholesky decomposition and subsystems)
  Bruno N. Cabral Tenorio,     Technical Univ. of Denmark,Denmark     (Lanczos-based CC methods)
  Ove Christiansen,            Aarhus University,         Denmark     (CC module)
  Renzo Cimiraglia,            University of Ferrara,     Italy       (NEVPT2)
  Sonia Coriani,               Technical Univ. of Denmark,Denmark     (CC and RESPONS modules)
  Janusz Cukras,               University of Warsaw,      Poland      (MChD in RESPONS)
  Paal Dahle,                  University of Oslo,        Norway      (Parallelization)
  Erik K. Dalskov,             UNI-C,                     Denmark     (SOPPA)
  Thomas Enevoldsen,           Univ. of Southern Denmark, Denmark     (SOPPA)
  Janus J. Eriksen,            Aarhus University,         Denmark     (Polarizable embedding, TDA)
  Rasmus Faber,                Technical Univ. of Denmark,Denmark     (Vib.avg. NMR w. SOPPA, parallel AO-SOPPA, CVS-CC and EOMCC)
  Tobias Fahleson,             KTH Stockholm,             Sweden      (Damped cubic response)
  Berta Fernandez,             U. of Santiago de CompostelSpain       (Doublet spin, ESR in RESPONS)
  Lara Ferrighi,               Aarhus University,         Denmark     (PCM Cubic response)
  Heike Fliegl,                University of Oslo,        Norway      (CCSD(R12))
  Luca Frediani,               UiT The Arctic U. of NorwayNorway      (PCM)
  Emmanuel Fromager,           Univ. Strasbourg,          France      (MC-srDFT)
  Bin Gao,                     UiT The Arctic U. of NorwayNorway      (Gen1Int library)
  Andre S. P. Gomes,           CNRS/Universite de Lille,  France      (Frozen density embedding)
  Christof Haettig,            Ruhr-University Bochum,    Germany     (CC module)
  Kasper Hald,                 Aarhus University,         Denmark     (CC module)
  Asger Halkier,               Aarhus University,         Denmark     (CC module)
  Frederik Beyer Hansen,       University of Copenhagen,  Denmark     (Parallel AO-SOPPA)
  Erik D. Hedegaard,           Univ. of Southern Denmark, Denmark     (Polarizable embedding, QM/MM, and MC-srDFT)
  Hanne Heiberg,               University of Oslo,        Norway      (Geometry analysis, selected one-electron integrals)
  Trygve Helgaker,             University of Oslo,        Norway      (DALTON; ABACUS, ERI, DFT modules, London, and much more)
  Alf Christian Hennum,        University of Oslo,        Norway      (Parity violation)
  Hinne Hettema,               University of Auckland,    New Zealand (Quadratic response in RESPONS; SIRIUS supersymmetry)
  Andreas E. Hillers-Bendtsen, University of Copenhagen,  Denmark     (MP3)
  Eirik Hjertenaes,            NTNU,                      Norway      (Cholesky decomposition)
  Nicolai Machholdt Hoeyer,    Aarhus University,         Denmark     (MP3)
  Pi A. B. Haase,              University of Copenhagen,  Denmark     (Triplet AO-SOPPA)
  Maria Francesca Iozzi,       University of Oslo,        Norway      (RPA)
  Christoph Jacob,             TU Braunschweig            Germany     (Frozen density embedding)
  Brano Jansik,                Technical Univ. of Ostrava Czech Rep.  (DFT cubic response)
  Hans Joergen Aa. Jensen,     Univ. of Southern Denmark, Denmark     (DALTON; SIRIUS, RESPONS, ABACUS, MC-srDFT, and much more)
  Dan Jonsson,                 UiT The Arctic U. of NorwayNorway      (Cubic response in RESPONS module)
  Poul Joergensen,             Aarhus University,         Denmark     (RESPONS, ABACUS, and CC modules)
  Maciej Kaminski,             University of Warsaw,      Poland      (CPPh in RESPONS)
  Joanna Kauczor,              Linkoeping University,     Sweden      (Complex polarization propagator (CPP) module)
  Sheela Kirpekar,             Univ. of Southern Denmark, Denmark     (Mass-velocity & Darwin integrals)
  Frederik Oersted Kjeldal,    Technical Univ. of Denmark,Denmark     (MP3)
  Erik Kjellgren,              Univ. of Southern Denmark, Denmark     (MC-srDFT)
  Wim Klopper,                 KIT Karlsruhe,             Germany     (R12 code in CC, SIRIUS, and ABACUS modules)
  Stefan Knecht,               ETH Zurich,                Switzerland (Parallel CI and MCSCF, MC-srDFT)
  Rika Kobayashi,              Australian National Univ., Australia   (DIIS in CC, London in MCSCF)
  Henrik Koch,                 NTNU,                      Norway      (CC module, Cholesky decomposition)
  Jacob Kongsted,              Univ. of Southern Denmark, Denmark     (Polarizable embedding, polarizable density embedding, QM/MM)
  Andrea Ligabue,              University of Modena,      Italy       (CTOCD, AOSOPPA)
  Nanna H. List,               Univ. of Southern Denmark, Denmark     (Polarizable embedding)
  Ola B. Lutnaes,              University of Oslo,        Norway      (DFT Hessian)
  Juan I. Melo,                University of Buenos Aires,Argentina   (LRESC, Relativistic Effects on NMR Shieldings)
  Kurt V. Mikkelsen,           University of Copenhagen,  Denmark     (MC-SCRF, QM/MM, and MP3)
  Rolf H. Myhre,               NTNU,                      Norway      (Subsystems and CC3)
  Christian Neiss,             Univ. Erlangen-Nuernberg,  Germany     (CCSD(R12))
  Christian B. Nielsen,        University of Copenhagen,  Denmark     (QM/MM)
  Patrick Norman,              KTH Stockholm,             Sweden      (Cubic response and complex frequency response in RESPONS)
  Jeppe Olsen,                 Aarhus University,         Denmark     (SIRIUS CI/density modules)
  Jogvan Magnus H. Olsen,      Aarhus University,         Denmark     (Polarizable embedding and polarizable density embedding)
  Anders Osted,                Copenhagen University,     Denmark     (QM/MM)
  Martin J. Packer,            University of Sheffield,   UK          (SOPPA)
  Filip Pawlowski,             Kazimierz Wielki UniversityPoland      (CC3)
  Morten N. Pedersen,          Univ. of Southern Denmark, Denmark     (Polarizable embedding)
  Thomas B. Pedersen,          University of Oslo,        Norway      (Cholesky decomposition)
  Patricio F. Provasi,         University of Northeastern,Argentina   (Analysis of coupling constants in localized orbitals)
  Peter Reinholdt,             Univ. of Southern Denmark, Denmark     (Polarizable embedding and polarizable density embedding)
  Zilvinas Rinkevicius,        KTH Stockholm,             Sweden      (open-shell DFT, ESR)
  Elias Rudberg,               KTH Stockholm,             Sweden      (DFT grid and basis info)
  Torgeir A. Ruden,            University of Oslo,        Norway      (Numerical derivatives in ABACUS)
  Kenneth Ruud,                UiT The Arctic U. of NorwayNorway      (DALTON; ABACUS magnetic properties and much more)
  Pawel Salek,                 KTH Stockholm,             Sweden      (DALTON; DFT code)
  Claire C. M. Samson,         University of Karlsruhe    Germany     (Boys localization, r12 integrals in ERI)
  Alfredo Sanchez de Meras,    University of Valencia,    Spain       (CC module, Cholesky decomposition)
  Trond Saue,                  Paul Sabatier University,  France      (direct Fock matrix construction)
  Stephan P. A. Sauer,         University of Copenhagen,  Denmark     (SOPPA(CCSD), SOPPA prop., AOSOPPA, vibrational g-factors)
  Bernd Schimmelpfennig,       Forschungszentrum KarlsruheGermany     (AMFI module)
  Anna K. Schnack-Petersen,    University of Copenhagen,  Denmark     (RPA(D) and HRPA(D) properties in AOSOPPA)
  Kristian Sneskov,            Aarhus University,         Denmark     (Polarizable embedding, QM/MM)
  Arnfinn H. Steindal,         UiT The Arctic U. of NorwayNorway      (parallel QM/MM, polarizable embedding)
  Casper Steinmann,            Aalborg University,        Denmark     (QFIT, polarizable embedding)
  K. O. Sylvester-Hvid,        University of Copenhagen,  Denmark     (MC-SCRF)
  Peter R. Taylor,             VLSCI/Univ. of Melbourne,  Australia   (Symmetry handling ABACUS, integral transformation)
  Andrew M. Teale,             University of Nottingham,  England     (DFT-AC, DFT-D)
  David P. Tew,                University of Bristol,     England     (CCSD(R12))
  Julien Toulouse,             Sorbonne Univ.,            France      (MC-srDFT)
  Olav Vahtras,                KTH Stockholm,             Sweden      (Triplet response, spin-orbit, ESR, TDDFT, open-shell DFT)
  Lucas Visscher,              Vrije Universiteit AmsterdaNetherlands (Frozen density embedding)
  David J. Wilson,             La Trobe University,       Australia   (DFT Hessian and DFT magnetizabilities)
  Luna Zamok,                  University of Copenhagen,  Denmark     (Block Lanczos RPA solver in SOPPA module)
  Hans Agren,                  KTH Stockholm,             Sweden      (SIRIUS module, RESPONS, MC-SCRF solvation)
 --------------------------------------------------------------------------------

     Date and time (Linux)  : Sat Apr 13 13:29:27 2024
     Host name              : node103                                 

 * Work memory size             :    64000000 =  488.28 megabytes.

 * Directories for basis set searches:
   1) /home1/s4925076/dalton-files/Sample_inputs_dalton2024_updated/ex4/ex4g/cc-pVQZ
   2) /home3/hb-qchav/Dalton/basis


Compilation information
-----------------------

 Who compiled             | p256146
 Host                     | login1
 System                   | Linux-4.18.0-425.13.1.el8_7.x86_64
 CMake generator          | Unix Makefiles
 Processor                | x86_64
 64-bit integers          | OFF
 MPI                      | ON
 Fortran compiler         | /cvmfs/hpc.rug.nl/versions/2023.01/rocky8/x86_64/a
                          | md/zen3/software/impi/2021.7.1-intel-compilers-202
                          | 2.2.1/mpi/2021.7.1/bin/mpiifort
 Fortran compiler version | unknown
 C compiler               | /cvmfs/hpc.rug.nl/versions/2023.01/rocky8/x86_64/a
                          | md/zen3/software/impi/2021.7.1-intel-compilers-202
                          | 2.2.1/mpi/2021.7.1/bin/mpiicc
 C compiler version       | unknown
 C++ compiler             | /cvmfs/hpc.rug.nl/versions/2023.01/rocky8/x86_64/a
                          | md/zen3/software/impi/2021.7.1-intel-compilers-202
                          | 2.2.1/mpi/2021.7.1/bin/mpiicpc
 C++ compiler version     | unknown
 BLAS                     | /cvmfs/hpc.rug.nl/versions/2023.01/rocky8/x86_64/a
                          | md/zen3/software/imkl/2022.2.1/mkl/2022.2.1/lib/in
                          | tel64/libmkl_intel_lp64.so;/cvmfs/hpc.rug.nl/versi
                          | ons/2023.01/rocky8/x86_64/amd/zen3/software/imkl/2
                          | 022.2.1/mkl/2022.2.1/lib/intel64/libmkl_sequential
                          | .so;/cvmfs/hpc.rug.nl/versions/2023.01/rocky8/x86_
                          | 64/amd/zen3/software/imkl/2022.2.1/mkl/2022.2.1/li
                          | b/intel64/libmkl_core.so;/usr/lib64/libpthread.so;
                          | /usr/lib64/libm.so
 LAPACK                   | /cvmfs/hpc.rug.nl/versions/2023.01/rocky8/x86_64/a
                          | md/zen3/software/imkl/2022.2.1/mkl/2022.2.1/lib/in
                          | tel64/libmkl_lapack95_lp64.a;/cvmfs/hpc.rug.nl/ver
                          | sions/2023.01/rocky8/x86_64/amd/zen3/software/imkl
                          | /2022.2.1/mkl/2022.2.1/lib/intel64/libmkl_intel_lp
                          | 64.so
 Static linking           | OFF
 Last Git revision        | 4d6ac05be54d7f9c5fe49e0ac32a42491a6c6955
 Git branch               | master
 Configuration time       | 2023-04-05 13:35:07.780405

 * Sequential calculation.


   Content of the .dal input file
 ----------------------------------

**DALTON INPUT
.RUN WAVEFUNCTION
**WAVE FUNCTIONS
.CC
*CC INPUT
.CC(T)
.FREEZE
 1 7
**END OF DALTON INPUT


   Content of the .mol file
 ----------------------------

BASIS
cc-pVQZ
Calculation of excitation energies through ABACUS

Atomtypes=2 Multiplicity=1 Charge=0 Nosymmetry
Charge=8.0 Atoms=1
O   0.00000             0.00000              0.1241444240
Charge=1.0 Atoms=2
H   0.00000             1.43153              -0.985265576
H   0.00000            -1.43153              -0.985265576


       *******************************************************************
       *********** Output from DALTON general input processing ***********
       *******************************************************************

 --------------------------------------------------------------------------------
   Overall default print level:    0
   Print level for DALTON.STAT:    1

    HERMIT 1- and 2-electron integral sections will be executed
    "Old" integral transformation used (limited to max 255 basis functions)
    Wave function sections will be executed (SIRIUS module)
 --------------------------------------------------------------------------------


   ****************************************************************************
   *************** Output of molecule and basis set information ***************
   ****************************************************************************


    The two title cards from your ".mol" input:
    --------------------------------------------------------------------------------
 1: Calculation of excitation energies through ABACUS
 2: 
    --------------------------------------------------------------------------------

  Atomic type no.    1
  --------------------
  Nuclear charge:   8.00000
  Number of symmetry independent centers:    1
  Number of basis sets to read;    2
  Basis set file used for this atomic type with Z =   8 :
     "/home3/hb-qchav/Dalton/basis/cc-pVQZ"

  Atomic type no.    2
  --------------------
  Nuclear charge:   1.00000
  Number of symmetry independent centers:    2
  Number of basis sets to read;    2
  Basis set file used for this atomic type with Z =   1 :
     "/home3/hb-qchav/Dalton/basis/cc-pVQZ"


                         SYMGRP: Point group information
                         -------------------------------

@    Point group: C1 


                                 Isotopic Masses
                                 ---------------

                           O          15.994915
                           H           1.007825
                           H           1.007825

                       Total mass:    18.010565 amu
                       Natural abundance:  99.730 %

 Center-of-mass coordinates (a.u.):    0.000000    0.000000   -0.000015
 Center-of-mass coordinates (Angs):    0.000000    0.000000   -0.000008


  Atoms and basis sets
  --------------------

  Number of atom types :    2
  Total number of atoms:    3

  Basis set used is "cc-pVQZ" from the basis set library.

  label    atoms   charge   prim   cont     basis
  ----------------------------------------------------------------------
  O           1    8.0000    68    55      [12s6p3d2f1g|5s4p3d2f1g]                           
  H           2    1.0000    32    30      [6s3p2d1f|4s3p2d1f]                                
  ----------------------------------------------------------------------
  total:      3   10.0000   132   115
  ----------------------------------------------------------------------
  Spherical harmonic basis used.

  Threshold for neglecting AO integrals:  1.00D-12


  Cartesian Coordinates (a.u.)
  ----------------------------

  Total number of coordinates:    9
  O       :     1  x   0.0000000000    2  y   0.0000000000    3  z   0.1241444240
  H       :     4  x   0.0000000000    5  y   1.4315300000    6  z  -0.9852655760
  H       :     7  x   0.0000000000    8  y  -1.4315300000    9  z  -0.9852655760


   Interatomic separations (in Angstrom):
   --------------------------------------

            O           H           H     
            ------      ------      ------
 O     :    0.000000
 H     :    0.958391    0.000000
 H     :    0.958391    1.515066    0.000000


  Max    interatomic separation is    1.5151 Angstrom (    2.8631 Bohr)
  between atoms    3 and    2, "H     " and "H     ".

  Min HX interatomic separation is    0.9584 Angstrom (    1.8111 Bohr)


  Bond distances (Angstrom):
  --------------------------

                  atom 1     atom 2       distance
                  ------     ------       --------
  bond distance:  H          O            0.958391
  bond distance:  H          O            0.958391


  Bond angles (degrees):
  ----------------------

                  atom 1     atom 2     atom 3         angle
                  ------     ------     ------         -----
  bond angle:     H          O          H            104.450




 Principal moments of inertia (u*A**2) and principal axes
 --------------------------------------------------------

   IA       0.616959          0.000000    1.000000    0.000000
   IB       1.156694          0.000000    0.000000    1.000000
   IC       1.773652          1.000000    0.000000    0.000000


 Rotational constants
 --------------------

@    The molecule is planar.

               A                   B                   C

         819145.5126         436916.9575         284936.9149 MHz
           27.323753           14.573981            9.504472 cm-1


@  Nuclear repulsion energy :    9.183706230245 Hartree


                     .---------------------------------------.
                     | Starting in Integral Section (HERMIT) |
                     `---------------------------------------'



 ***************************************************************************************
 ****************** Output from **INTEGRALS input processing (HERMIT) ******************
 ***************************************************************************************


 - Using defaults, no **INTEGRALS input found

 Default print level:        1

 Calculation of one- and two-electron Hamiltonian integrals.

 Center of mass  (bohr):      0.000000000000      0.000000000000     -0.000015049426
 Operator center (bohr):      0.000000000000      0.000000000000      0.000000000000
 Gauge origin    (bohr):      0.000000000000      0.000000000000      0.000000000000
 Dipole origin   (bohr):      0.000000000000      0.000000000000      0.000000000000

Calculation of 2-electron integrals are postponed until they are needed.


     ************************************************************************
     ************************** Output from HERINT **************************
     ************************************************************************



                      Nuclear contribution to dipole moments
                      --------------------------------------

                 au               Debye          C m (/(10**-30)

      x      0.00000000         0.00000000         0.00000000
      y      0.00000000         0.00000000         0.00000000
      z     -0.97737576        -2.48424123        -8.28653678


  Total CPU  time used in HERMIT:   0.03 seconds
  Total wall time used in HERMIT:   0.03 seconds


                        .----------------------------------.
                        | End of Integral Section (HERMIT) |
                        `----------------------------------'



                   .--------------------------------------------.
                   | Starting in Wave Function Section (SIRIUS) |
                   `--------------------------------------------'


 *** Output from Huckel module :

     Using EWMO model:          T
     Using EHT  model:          F
     Number of Huckel orbitals each symmetry:    7

 EWMO - Energy Weighted Maximum Overlap - is a Huckel type method,
        which normally is better than Extended Huckel Theory.
 Reference: Linderberg and Ohrn, Propagators in Quantum Chemistry (Wiley, 1973)

 Huckel EWMO eigenvalues for symmetry :  1
          -20.684949      -1.610949      -0.778093      -0.688539      -0.616200
           -0.232646      -0.168524

 **********************************************************************
 *SIRIUS* a direct, restricted step, second order MCSCF program       *
 **********************************************************************

 
     Date and time (Linux)  : Sat Apr 13 13:29:27 2024
     Host name              : node103                                 

 Title lines from ".mol" input file:
     Calculation of excitation energies through ABACUS
     

 Print level on unit LUPRI =   2 is   0
 Print level on unit LUW4  =   2 is   5

@    (Integral direct) CC calculation.

@    This is a combination run starting with
@              a restricted, closed shell Hartree-Fock calculation


 Initial molecular orbitals are obtained according to
 ".MOSTART EWMO  " input option

     Wave function specification
     ============================

     For the specification of the Coupled Cluster: see below.

@    Wave function type        --- CC ---
@    Number of closed shell electrons          10
@    Number of electrons in active shells       0
@    Total charge of the molecule               0

@    Spin multiplicity and 2 M_S                1         0
@    Total number of symmetries                 1 (point group: C1 )
@    Reference state symmetry                   1 (irrep name : A  )

     Orbital specifications
     ======================
@    Abelian symmetry species          All |    1
@                                          |  A  
                                       --- |  ---
@    Occupied SCF orbitals               5 |    5
@    Secondary orbitals                110 |  110
@    Total number of orbitals          115 |  115
@    Number of basis functions         115 |  115

     Optimization information
     ========================
@    Number of configurations                 1
@    Number of orbital rotations            550
     ------------------------------------------
@    Total number of variables              551

     Maximum number of Fock   iterations      0
     Maximum number of DIIS   iterations     60
     Maximum number of QC-SCF iterations     60
     Threshold for SCF convergence     1.00D-06


 Changes of defaults for CC:
 ---------------------------


 -Implicit frozen core calculation
  


 ***********************************************
 ***** DIIS acceleration of SCF iterations *****
 ***********************************************

 C1-DIIS algorithm; max error vectors =    8

 Iter      Total energy        Error norm    Delta(E)  DIIS dim.
 -----------------------------------------------------------------------------

Calculating AOSUPINT

---> (Re)generating AOTWOINT


     ************************************************************************
     ************************** Output from HERINT **************************
     ************************************************************************


 Threshold for neglecting two-electron integrals:  1.00D-12
 HERMIT - Number of two-electron integrals written:    10279853 ( 46.2% )
 HERMIT - Megabytes written:                            117.715

  Total CPU  time used in TWOINT:   0.71 seconds
  Total wall time used in TWOINT:   0.71 seconds
  Time used in TWOINT     is       0.71 seconds
  CPU  time used in MAKE_AOTWOINT is   0.71 seconds
  WALL time used in MAKE_AOTWOINT is   0.71 seconds
     (Precalculated AO two-electron integrals are transformed to P-supermatrix elements.
      Threshold for discarding integrals :  1.00D-12 )

  CPU  time used in FORMSUP    is   0.51 seconds
  WALL time used in FORMSUP    is   0.51 seconds
@  1    -75.8762420529        1.94874D+00   -7.59D+01    1
      Virial theorem: -V/T =      1.997496
@    MULPOP   O      -1.06; H       0.53; H       0.53; 
   1  Level shift: doubly occupied orbital energies shifted by -2.00D-01
 -----------------------------------------------------------------------------
@  2    -76.0538813899        4.13443D-01   -1.78D-01    2
      Virial theorem: -V/T =      2.003229
@    MULPOP   O      -0.59; H       0.30; H       0.30; 
   2  Level shift: doubly occupied orbital energies shifted by -5.00D-02
 -----------------------------------------------------------------------------
@  3    -76.0634879415        1.10370D-01   -9.61D-03    3
      Virial theorem: -V/T =      1.999898
@    MULPOP   O      -0.53; H       0.27; H       0.27; 
   3  Level shift: doubly occupied orbital energies shifted by -2.50D-02
 -----------------------------------------------------------------------------
@  4    -76.0645868104        5.03310D-02   -1.10D-03    4
      Virial theorem: -V/T =      2.001629
@    MULPOP   O      -0.51; H       0.26; H       0.26; 
   4  Level shift: doubly occupied orbital energies shifted by -1.25D-02
 -----------------------------------------------------------------------------
@  5    -76.0647239885        1.11446D-02   -1.37D-04    5
      Virial theorem: -V/T =      2.000698
@    MULPOP   O      -0.52; H       0.26; H       0.26; 
 -----------------------------------------------------------------------------
@  6    -76.0647432220        2.49977D-03   -1.92D-05    6
      Virial theorem: -V/T =      2.000801
@    MULPOP   O      -0.53; H       0.26; H       0.26; 
 -----------------------------------------------------------------------------
@  7    -76.0647443301        4.26975D-04   -1.11D-06    7
      Virial theorem: -V/T =      2.000820
@    MULPOP   O      -0.53; H       0.26; H       0.26; 
 -----------------------------------------------------------------------------
@  8    -76.0647443572        5.62099D-05   -2.70D-08    8
      Virial theorem: -V/T =      2.000823
@    MULPOP   O      -0.53; H       0.26; H       0.26; 
 -----------------------------------------------------------------------------
@  9    -76.0647443576        1.06911D-05   -4.16D-10    8
      Virial theorem: -V/T =      2.000823
@    MULPOP   O      -0.53; H       0.26; H       0.26; 
 -----------------------------------------------------------------------------
@ 10    -76.0647443576        1.70499D-06   -1.40D-11    8
      Virial theorem: -V/T =      2.000823
@    MULPOP   O      -0.53; H       0.26; H       0.26; 
 -----------------------------------------------------------------------------
@ 11    -76.0647443576        2.78040D-07   -4.26D-13    8

@ *** DIIS converged in  11 iterations !
@     Converged SCF energy, gradient:    -76.064744357608    2.78D-07
    - total time used in SIRFCK :              0.00 seconds


 *** SCF orbital energy analysis ***

 Only the 20 lowest virtual orbital energies printed in each symmetry.

 Number of electrons        :   10
 Closed shell orbitals      :    5

 Sym       Hartree-Fock orbital energies

1 A     -20.56002219    -1.34895127    -0.71361364    -0.58185809    -0.50806837
          0.11696746     0.17096444     0.44905763     0.46225135     0.50131728
          0.58370052     0.60487407     0.61452420     0.65646617     0.71787880
          0.85177923     0.91953730     1.11155331     1.15667537     1.34639993
          1.41684603     1.48021635     1.48490681     1.57857276     1.68638406

    E(LUMO) :     0.11696746 au (symmetry 1)
  - E(HOMO) :    -0.50806837 au (symmetry 1)
  ------------------------------------------
    gap     :     0.62503583 au

 --- Writing SIRIFC interface file

--------------------------------------------------------------------------------


     .--------------------------------------------------.
     | HF-SCF KT IPs [a.u. & eV] from Koopmans' theorem |
     `--------------------------------------------------'


     HF-SCF KT symmetry 1 ( A  ) in point group C1  -- 5 principal poles with pole strength 1

   ============  ============  ============  ============  ============
      20.560022      1.348951      0.713614      0.581858      0.508068
     559.466663     36.706831     19.418415     15.833164     13.825244
   ============  ============  ============  ============  ============

@ Summary of HF-SCF KT ionization potentials [eV]:

@ Symmetry 1 (A  ) :   559.467      36.707      19.418      15.833      13.825

  === End of HF-SCF KT output ===
--------------------------------------------------------------------------------


 CPU and wall time for SCF :       1.699       1.755


                       .-----------------------------------.
                       | --- Final results from SIRIUS --- |
                       `-----------------------------------'


@    Spin multiplicity:           1
@    Spatial symmetry:            1 ( irrep  A   in C1  )
@    Total charge of molecule:    0

@    Final HF energy:             -76.064744357608                 
@    Nuclear repulsion:             9.183706230245
@    Electronic energy:           -85.248450587853

@    Final gradient norm:           0.000000278040

 
     Date and time (Linux)  : Sat Apr 13 13:29:29 2024
     Host name              : node103                                 

File label for MO orbitals:  13Apr24   FOCKDIIS

 (Only coefficients > 0.0100 are printed.)

 Molecular orbitals for symmetry species 1  (A  )
 ------------------------------------------------

    Orbital         1        2        3        4        5        6        7
   1 O   :1s    -1.0005   0.0038  -0.0000  -0.0027   0.0000  -0.0099   0.0000
   2 O   :1s    -0.0024  -0.8823  -0.0000  -0.3062   0.0000  -0.2779  -0.0000
   3 O   :1s    -0.0008   0.0081   0.0000  -0.0051   0.0000  -0.0277  -0.0000
   4 O   :1s     0.0038   0.0227   0.0000  -0.0028  -0.0000   0.2258   0.0000
   5 O   :1s     0.0012   0.0326  -0.0000  -0.1109  -0.0000  -1.8167  -0.0000
   6 O   :2px    0.0000   0.0000  -0.0000   0.0000   0.9211   0.0000   0.0000
   7 O   :2py   -0.0000  -0.0000  -0.7303  -0.0000  -0.0000  -0.0000  -0.2996
   8 O   :2pz    0.0084   0.1119   0.0000  -0.8081   0.0000   0.2093  -0.0000
  10 O   :2py   -0.0000   0.0000   0.0005   0.0000  -0.0000   0.0000   0.0125
  11 O   :2pz   -0.0033   0.0032  -0.0000   0.0019   0.0000  -0.0315   0.0000
  13 O   :2py    0.0000   0.0000   0.0238   0.0000  -0.0000  -0.0000  -0.0657
  14 O   :2pz   -0.0047   0.0028   0.0000   0.0076   0.0000   0.1052  -0.0000
  15 O   :2px    0.0000   0.0000  -0.0000   0.0000   0.0625   0.0000   0.0000
  16 O   :2py    0.0000   0.0000   0.0677   0.0000  -0.0000   0.0000  -0.9815
  17 O   :2pz   -0.0021  -0.0191   0.0000  -0.0209   0.0000   0.3980   0.0000
  24 O   :3d1-  -0.0000  -0.0000   0.0183  -0.0000   0.0000   0.0000  -0.0144
  29 O   :3d1-  -0.0000  -0.0000   0.0192   0.0000   0.0000  -0.0000   0.1189
  30 O   :3d0   -0.0001  -0.0026   0.0000   0.0161  -0.0000   0.0099   0.0000
  31 O   :3d1+  -0.0000  -0.0000   0.0000  -0.0000  -0.0157  -0.0000  -0.0000
  32 O   :3d2+  -0.0005   0.0041   0.0000  -0.0087   0.0000   0.0878   0.0000
  42 O   :4f1-   0.0000   0.0000  -0.0005   0.0000  -0.0000   0.0000  -0.0155
  43 O   :4f0    0.0002  -0.0005  -0.0000  -0.0005   0.0000  -0.0157  -0.0000
  45 O   :4f2+   0.0003  -0.0023   0.0000   0.0034  -0.0000  -0.0241   0.0000
  56 H   :1s     0.0003  -0.3908  -0.6138   0.3707  -0.0000   0.0017  -0.0490
  57 H   :1s    -0.0011   0.0178   0.0164  -0.0095   0.0000   0.0932   0.0721
  58 H   :1s    -0.0009   0.1460   0.1222  -0.0877   0.0000   0.3089   0.3332
  59 H   :1s     0.0001   0.1133   0.1440  -0.0966   0.0000   0.9804   2.0985
  63 H   :2px   -0.0000  -0.0000   0.0000  -0.0000   0.0120  -0.0000  -0.0000
  64 H   :2py    0.0005   0.0098   0.0094  -0.0090  -0.0000   0.0171   0.0203
  65 H   :2pz   -0.0005  -0.0070  -0.0134  -0.0034   0.0000   0.0018  -0.0308
  66 H   :2px   -0.0000  -0.0000   0.0000  -0.0000   0.0284  -0.0000  -0.0000
  67 H   :2py    0.0002   0.0055   0.0136  -0.0078  -0.0000  -0.1544  -0.2447
  68 H   :2pz   -0.0002  -0.0028  -0.0167  -0.0182   0.0000   0.1330   0.1869
  78 H   :3d2+   0.0001   0.0008   0.0023  -0.0020  -0.0000   0.0039  -0.0177
  86 H   :1s     0.0003  -0.3908   0.6138   0.3707  -0.0000   0.0017   0.0490
  87 H   :1s    -0.0011   0.0178  -0.0164  -0.0095   0.0000   0.0932  -0.0721
  88 H   :1s    -0.0009   0.1460  -0.1222  -0.0877   0.0000   0.3089  -0.3332
  89 H   :1s     0.0001   0.1133  -0.1440  -0.0966   0.0000   0.9804  -2.0985
  93 H   :2px   -0.0000  -0.0000   0.0000  -0.0000   0.0120  -0.0000  -0.0000
  94 H   :2py   -0.0005  -0.0098   0.0094   0.0090   0.0000  -0.0171   0.0203
  95 H   :2pz   -0.0005  -0.0070   0.0134  -0.0034   0.0000   0.0018   0.0308
  96 H   :2px   -0.0000  -0.0000   0.0000  -0.0000   0.0284  -0.0000  -0.0000
  97 H   :2py   -0.0002  -0.0055   0.0136   0.0078   0.0000   0.1544  -0.2447
  98 H   :2pz   -0.0002  -0.0028   0.0167  -0.0182   0.0000   0.1330  -0.1869
 108 H   :3d2+   0.0001   0.0008  -0.0023  -0.0020  -0.0000   0.0039   0.0177

    Orbital         8        9       10       11       12       13       14
   1 O   :1s    -0.0000   0.0314   0.0011   0.0000   0.0007  -0.0000   0.0000
   2 O   :1s    -0.0000  -0.0378   0.2069   0.0000   0.1588  -0.0000   0.0000
   3 O   :1s    -0.0000   0.2591  -0.0368   0.0000  -0.0260  -0.0000   0.0000
   4 O   :1s     0.0000  -1.4199   0.1434  -0.0000   0.1475   0.0000  -0.0000
   5 O   :1s     0.0000  -8.1573  -2.3892  -0.0000   0.1785  -0.0000   0.0000
   6 O   :2px   -0.0000   0.0000  -0.0000   0.7187   0.0000  -0.0000  -0.0000
   7 O   :2py    0.2263   0.0000  -0.0000  -0.0000   0.0000   0.5659  -0.0000
   8 O   :2pz    0.0000  -0.3262  -0.4223   0.0000  -0.1874  -0.0000   0.0000
   9 O   :2px   -0.0000   0.0000  -0.0000  -0.1382   0.0000  -0.0000   0.0000
  10 O   :2py   -0.0417  -0.0000  -0.0000  -0.0000  -0.0000   0.0725   0.0000
  11 O   :2pz   -0.0000  -0.0083  -0.0252   0.0000   0.0289   0.0000  -0.0000
  12 O   :2px    0.0000  -0.0000   0.0000   0.4232  -0.0000   0.0000   0.0000
  13 O   :2py    0.9396   0.0000  -0.0000  -0.0000  -0.0000  -1.1111  -0.0000
  14 O   :2pz   -0.0000   1.0723   0.0754   0.0000  -0.3719  -0.0000  -0.0000
  15 O   :2px   -0.0000   0.0000  -0.0000  -1.5502   0.0000  -0.0000  -0.0000
  16 O   :2py    2.2597   0.0000  -0.0000  -0.0000  -0.0000  -4.0425  -0.0000
  17 O   :2pz   -0.0000   3.6177   1.0230   0.0000  -1.4409   0.0000  -0.0000
  19 O   :3d1-   0.0150   0.0000  -0.0000  -0.0000  -0.0000  -0.0053  -0.0000
  23 O   :3d2-   0.0000  -0.0000  -0.0000   0.0000   0.0000  -0.0000   0.0153
  24 O   :3d1-  -0.0537  -0.0000   0.0000   0.0000   0.0000   0.0345  -0.0000
  25 O   :3d0    0.0000   0.0145   0.0206   0.0000  -0.0176   0.0000  -0.0000
  26 O   :3d1+  -0.0000   0.0000  -0.0000  -0.0235   0.0000  -0.0000  -0.0000
  27 O   :3d2+  -0.0000   0.0363  -0.0190   0.0000  -0.0096  -0.0000   0.0000
  28 O   :3d2-  -0.0000  -0.0000  -0.0000  -0.0000   0.0000   0.0000  -0.2797
  29 O   :3d1-  -0.6309  -0.0000  -0.0000   0.0000  -0.0000   0.8812  -0.0000
  30 O   :3d0    0.0000  -0.1115  -0.1283  -0.0000   0.5602   0.0000  -0.0000
  31 O   :3d1+   0.0000  -0.0000   0.0000   0.1120  -0.0000   0.0000  -0.0000
  32 O   :3d2+  -0.0000   0.6180   0.0512   0.0000   0.3049   0.0000   0.0000
  36 O   :4f0    0.0000  -0.0013  -0.0004  -0.0000   0.0108   0.0000  -0.0000
  40 O   :4f3-  -0.0536   0.0000  -0.0000   0.0000   0.0000   0.0415  -0.0000
  41 O   :4f2-   0.0000   0.0000   0.0000  -0.0000  -0.0000  -0.0000   0.0827
  42 O   :4f1-   0.0871  -0.0000   0.0000  -0.0000  -0.0000  -0.1031   0.0000
  43 O   :4f0    0.0000  -0.0541   0.0154   0.0000  -0.0972  -0.0000  -0.0000
  44 O   :4f1+  -0.0000   0.0000  -0.0000  -0.0138   0.0000  -0.0000   0.0000
  45 O   :4f2+   0.0000  -0.1190   0.0118  -0.0000  -0.0176   0.0000   0.0000
  46 O   :4f3+   0.0000  -0.0000   0.0000   0.0192  -0.0000   0.0000   0.0000
  48 O   :5g3-   0.0098   0.0000  -0.0000  -0.0000  -0.0000  -0.0107   0.0000
  53 O   :5g2+  -0.0000   0.0108   0.0019   0.0000  -0.0093  -0.0000  -0.0000
  56 H   :1s    -0.2936   0.0113  -0.4685  -0.0000  -0.1193  -0.4428  -0.0000
  57 H   :1s    -0.2345   0.2134   0.0825   0.0000   0.1015   0.3735  -0.0000
  58 H   :1s    -2.8703   5.0597   0.2798   0.0000  -0.9335   3.3753   0.0000
  59 H   :1s     0.4218   0.1034   0.9827   0.0000   0.4574   2.1961  -0.0000
  60 H   :2px   -0.0000   0.0000  -0.0000  -0.0088   0.0000  -0.0000   0.0402
  61 H   :2py   -0.0236   0.0221  -0.0305   0.0000  -0.0061  -0.0038   0.0000
  62 H   :2pz    0.0232  -0.0090   0.0105  -0.0000   0.0254   0.0076  -0.0000
  63 H   :2px    0.0000  -0.0000   0.0000   0.0339  -0.0000   0.0000  -0.1093
  64 H   :2py    0.2956  -0.3046   0.1058  -0.0000   0.0637  -0.2092  -0.0000
  65 H   :2pz   -0.2035   0.2301  -0.0625   0.0000  -0.0280   0.1148  -0.0000
  66 H   :2px    0.0000  -0.0000   0.0000   0.0785  -0.0000   0.0000   1.1146
  67 H   :2py    0.4071  -1.3283  -0.8558  -0.0000   0.5609  -1.5122  -0.0000
  68 H   :2pz   -0.2466   1.0339   0.2695   0.0000   1.0262   1.1882   0.0000
  70 H   :3d1-   0.0116  -0.0092   0.0095  -0.0000   0.0028  -0.0020  -0.0000
  73 H   :3d2+   0.0105  -0.0079   0.0036  -0.0000   0.0029   0.0001  -0.0000
  74 H   :3d2-  -0.0000   0.0000  -0.0000  -0.0434   0.0000  -0.0000  -0.0925
  75 H   :3d1-   0.1107  -0.2239  -0.0178  -0.0000  -0.0565  -0.1584  -0.0000
  76 H   :3d0    0.0193   0.0280  -0.0397  -0.0000   0.1750  -0.0273  -0.0000
  77 H   :3d1+   0.0000  -0.0000   0.0000   0.0224  -0.0000   0.0000   0.0996
  78 H   :3d2+   0.0717  -0.1388  -0.0208  -0.0000   0.1062  -0.1356  -0.0000
  79 H   :4f3-  -0.0050   0.0115   0.0014   0.0000  -0.0162   0.0053   0.0000
  80 H   :4f2-   0.0000  -0.0000   0.0000   0.0058  -0.0000   0.0000  -0.0202
  81 H   :4f1-   0.0009  -0.0126   0.0080  -0.0000  -0.0272   0.0026  -0.0000
  84 H   :4f2+   0.0092  -0.0215   0.0012  -0.0000   0.0077  -0.0066  -0.0000
  85 H   :4f3+   0.0000  -0.0000   0.0000   0.0023  -0.0000   0.0000  -0.0166
  86 H   :1s     0.2936   0.0113  -0.4685  -0.0000  -0.1193   0.4428  -0.0000
  87 H   :1s     0.2345   0.2134   0.0825   0.0000   0.1015  -0.3735  -0.0000
  88 H   :1s     2.8703   5.0597   0.2798   0.0000  -0.9335  -3.3753  -0.0000
  89 H   :1s    -0.4218   0.1034   0.9827   0.0000   0.4574  -2.1961   0.0000
  90 H   :2px   -0.0000   0.0000  -0.0000  -0.0088   0.0000  -0.0000  -0.0402
  91 H   :2py   -0.0236  -0.0221   0.0305  -0.0000   0.0061  -0.0038  -0.0000
  92 H   :2pz   -0.0232  -0.0090   0.0105  -0.0000   0.0254  -0.0076  -0.0000
  93 H   :2px    0.0000  -0.0000   0.0000   0.0339  -0.0000   0.0000   0.1093
  94 H   :2py    0.2956   0.3046  -0.1058   0.0000  -0.0637  -0.2092  -0.0000
  95 H   :2pz    0.2035   0.2301  -0.0625   0.0000  -0.0280  -0.1148  -0.0000
  96 H   :2px    0.0000  -0.0000   0.0000   0.0785  -0.0000   0.0000  -1.1146
  97 H   :2py    0.4071   1.3283   0.8558   0.0000  -0.5609  -1.5122  -0.0000
  98 H   :2pz    0.2466   1.0339   0.2695   0.0000   1.0262  -1.1882  -0.0000
 100 H   :3d1-   0.0116   0.0092  -0.0095   0.0000  -0.0028  -0.0020  -0.0000
 103 H   :3d2+  -0.0105  -0.0079   0.0036  -0.0000   0.0029  -0.0001   0.0000
 104 H   :3d2-   0.0000  -0.0000   0.0000   0.0434  -0.0000   0.0000  -0.0925
 105 H   :3d1-   0.1107   0.2239   0.0178   0.0000   0.0565  -0.1584  -0.0000
 106 H   :3d0   -0.0193   0.0280  -0.0397  -0.0000   0.1750   0.0273  -0.0000
 107 H   :3d1+   0.0000  -0.0000   0.0000   0.0224  -0.0000   0.0000  -0.0996
 108 H   :3d2+  -0.0717  -0.1388  -0.0208  -0.0000   0.1062   0.1356   0.0000
 109 H   :4f3-  -0.0050  -0.0115  -0.0014  -0.0000   0.0162   0.0053  -0.0000
 110 H   :4f2-  -0.0000   0.0000  -0.0000  -0.0058   0.0000  -0.0000  -0.0202
 111 H   :4f1-   0.0009   0.0126  -0.0080   0.0000   0.0272   0.0026   0.0000
 114 H   :4f2+  -0.0092  -0.0215   0.0012  -0.0000   0.0077   0.0066  -0.0000
 115 H   :4f3+   0.0000  -0.0000   0.0000   0.0023  -0.0000   0.0000   0.0166

    Orbital        15
   6 O   :2px   -0.1173
   9 O   :2px    0.0354
  12 O   :2px   -0.3164
  15 O   :2px   -1.4436
  26 O   :3d1+  -0.0125
  31 O   :3d1+   0.2389
  44 O   :4f1+  -0.0393
  46 O   :4f3+   0.0707
  60 H   :2px    0.0404
  63 H   :2px   -0.1275
  66 H   :2px    1.3318
  74 H   :3d2-  -0.1480
  77 H   :3d1+   0.0564
  80 H   :4f2-  -0.0212
  85 H   :4f3+  -0.0194
  90 H   :2px    0.0404
  93 H   :2px   -0.1275
  96 H   :2px    1.3318
 104 H   :3d2-   0.1480
 107 H   :3d1+   0.0564
 110 H   :4f2-   0.0212
 115 H   :4f3+  -0.0194

  Total CPU  time used in SIRIUS :   1.74 seconds
  Total wall time used in SIRIUS :   1.81 seconds

 
     Date and time (Linux)  : Sat Apr 13 13:29:29 2024
     Host name              : node103                                 


                     .---------------------------------------.
                     | End of Wave Function Section (SIRIUS) |
                     `---------------------------------------'



                    .------------------------------------------.
                    | Starting in Coupled Cluster Section (CC) |
                    `------------------------------------------'

  

 *******************************************************************************
 *******************************************************************************
 *                                                                             *
 *                                                                             *
 *                    START OF COUPLED CLUSTER CALCULATION                     *
 *                                                                             *
 *                                                                             *
 *******************************************************************************
 *******************************************************************************

 
  I am freezing!
 Freezing HF-orbital   1 of symmetry   1 and with orbital energy  -20.5600
 In total frozen-core per symmetry-class:  1
 
 Freezing HF-orbital 115 of symmetry   1 and with orbital energy   44.3680
 Freezing HF-orbital 114 of symmetry   1 and with orbital energy   16.8346
 Freezing HF-orbital 113 of symmetry   1 and with orbital energy   16.4481
 Freezing HF-orbital 112 of symmetry   1 and with orbital energy   14.8630
 Freezing HF-orbital 111 of symmetry   1 and with orbital energy   14.6709
 Freezing HF-orbital 110 of symmetry   1 and with orbital energy   14.6389
 Freezing HF-orbital 109 of symmetry   1 and with orbital energy   14.2784
 In total frozen-virtual per symmetry-class:  7
 


 CCR12 ANSATZ =   0

 CCR12 APPROX =   0

   

 *******************************************************************
 *                                                                 *
 *----------                                             >---------*
 *---------- OUTPUT FROM COUPLED CLUSTER ENERGY PROGRAM  >---------*
 *----------                                             >---------*
 *                                                                 *
 *******************************************************************


             The Direct Coupled Cluster Energy Program
             -----------------------------------------


          Number of t1 amplitudes                 :       412
          Number of t2 amplitudes                 :     85078
          Total number of amplitudes in ccsd      :     85490

 Iter.  1: Coupled cluster MP2   energy :     -76.3421846260761328
 Iter.  1: Coupled cluster CCSD  energy :     -76.3405077805008574
 Iter.  2: Coupled cluster CCSD  energy :     -76.3453134279696570
 Iter.  3: Coupled cluster CCSD  energy :     -76.3463382744807717
 Iter.  4: Coupled cluster CCSD  energy :     -76.3462783100863618
 Iter.  5: Coupled cluster CCSD  energy :     -76.3462916875889306
 Iter.  6: Coupled cluster CCSD  energy :     -76.3462956132804464
 Iter.  7: Coupled cluster CCSD  energy :     -76.3462951274227635
 Iter.  8: Coupled cluster CCSD  energy :     -76.3462951493079487
 Iter.  9: Coupled cluster CCSD  energy :     -76.3462950594830261
 Iter. 10: Coupled cluster CCSD  energy :     -76.3462950478744347
 Iter. 11: Coupled cluster CCSD  energy :     -76.3462950319717635
 Iter. 12: Coupled cluster CCSD  energy :     -76.3462950354529823

 CCSD  energy converged to within   0.10D-07 is          -76.346295035453
 Final 2-norm of the CC vector function:  1.12442443D-07





             +-------------------------------------------------------+
             ! Final results from the Coupled Cluster energy program !
             +-------------------------------------------------------+



            Total SCF   energy:                   -76.0647443576

            Total MP2   energy:                   -76.3421846261

            Total CCSD  energy:                   -76.3462950355


                     Perturbative triples corrections
                     --------------------------------

            The E4 doubles and triples:            -0.0088178470
            The E5 singles and triples:             0.0002319081

            Total energy CCSD(T):                 -76.3548809743
  

 *******************************************************************************
 *******************************************************************************
 *                                                                             *
 *                                                                             *
 *                   SUMMARY OF COUPLED CLUSTER CALCULATION                    *
 *                                                                             *
 *                                                                             *
 *******************************************************************************
 *******************************************************************************

                                                                                
                                                                                
            Total SCF   energy:                   -76.0647443576                
            Total MP2   energy:                   -76.3421846261                
            Total CCSD  energy:                   -76.3462950355                
                                                                                
                                                                                
                     Perturbative triples corrections                           
                     --------------------------------                           
                                                                                
            The E4 doubles and triples:            -0.0088178470                
            The E5 singles and triples:             0.0002319081                
                                                                                
            Total energy CCSD(T):                 -76.3548809743                
  

 *******************************************************************************
 *******************************************************************************
 *                                                                             *
 *                                                                             *
 *                      END OF COUPLED CLUSTER CALCULATION                     *
 *                                                                             *
 *                                                                             *
 *******************************************************************************
 *******************************************************************************


 CPU and wall time for CC :      20.912      21.169

 
     Date and time (Linux)  : Sat Apr 13 13:29:50 2024
     Host name              : node103                                 


                      .-------------------------------------.
                      | End of Coupled Cluster Section (CC) |
                      `-------------------------------------'

  Total CPU  time used in DALTON:  22.70 seconds
  Total wall time used in DALTON:  23.09 seconds

 
     Date and time (Linux)  : Sat Apr 13 13:29:50 2024
     Host name              : node103                                 
