[Molden Format]
[GTO]
    1 0
 s  12 1.00
   61420.0000000    0.0000900000
    9199.0000000    0.0006980000
    2091.0000000    0.0036640000
     590.9000000    0.0152180000
     192.3000000    0.0524230000
      69.3200000    0.1459210000
      26.9700000    0.3052580000
      11.1000000    0.3985080000
       4.6820000    0.2169800000
       1.4280000    0.0175940000
       0.5547000   -0.0025020000
       0.2067000    0.0009540000
 s  12 1.00
   61420.0000000   -0.0000200000
    9199.0000000   -0.0001590000
    2091.0000000   -0.0008290000
     590.9000000   -0.0035080000
     192.3000000   -0.0121560000
      69.3200000   -0.0362610000
      26.9700000   -0.0829920000
      11.1000000   -0.1520900000
       4.6820000   -0.1153310000
       1.4280000    0.2889790000
       0.5547000    0.5861280000
       0.2067000    0.2776240000
 s  12 1.00
   61420.0000000    0.0000000000
    9199.0000000    0.0000000000
    2091.0000000    0.0000000000
     590.9000000    0.0000000000
     192.3000000    0.0000000000
      69.3200000    0.0000000000
      26.9700000    0.0000000000
      11.1000000    0.0000000000
       4.6820000    0.0000000000
       1.4280000    1.0000000000
       0.5547000    0.0000000000
       0.2067000    0.0000000000
 s  12 1.00
   61420.0000000    0.0000000000
    9199.0000000    0.0000000000
    2091.0000000    0.0000000000
     590.9000000    0.0000000000
     192.3000000    0.0000000000
      69.3200000    0.0000000000
      26.9700000    0.0000000000
      11.1000000    0.0000000000
       4.6820000    0.0000000000
       1.4280000    0.0000000000
       0.5547000    1.0000000000
       0.2067000    0.0000000000
 s  12 1.00
   61420.0000000    0.0000000000
    9199.0000000    0.0000000000
    2091.0000000    0.0000000000
     590.9000000    0.0000000000
     192.3000000    0.0000000000
      69.3200000    0.0000000000
      26.9700000    0.0000000000
      11.1000000    0.0000000000
       4.6820000    0.0000000000
       1.4280000    0.0000000000
       0.5547000    0.0000000000
       0.2067000    1.0000000000
 p   6 1.00
      63.4200000    0.0060440000
      14.6600000    0.0417990000
       4.4590000    0.1611430000
       1.5310000    0.3567310000
       0.5302000    0.4483090000
       0.1750000    0.2449400000
 p   6 1.00
      63.4200000    0.0000000000
      14.6600000    0.0000000000
       4.4590000    0.0000000000
       1.5310000    1.0000000000
       0.5302000    0.0000000000
       0.1750000    0.0000000000
 p   6 1.00
      63.4200000    0.0000000000
      14.6600000    0.0000000000
       4.4590000    0.0000000000
       1.5310000    0.0000000000
       0.5302000    1.0000000000
       0.1750000    0.0000000000
 p   6 1.00
      63.4200000    0.0000000000
      14.6600000    0.0000000000
       4.4590000    0.0000000000
       1.5310000    0.0000000000
       0.5302000    0.0000000000
       0.1750000    1.0000000000
 d   3 1.00
       3.7750000    1.0000000000
       1.3000000    0.0000000000
       0.4440000    0.0000000000
 d   3 1.00
       3.7750000    0.0000000000
       1.3000000    1.0000000000
       0.4440000    0.0000000000
 d   3 1.00
       3.7750000    0.0000000000
       1.3000000    0.0000000000
       0.4440000    1.0000000000
 f   2 1.00
       2.6660000    1.0000000000
       0.8590000    0.0000000000
 f   2 1.00
       2.6660000    0.0000000000
       0.8590000    1.0000000000
 g   1 1.00
       1.8460000    1.0000000000

    2 0
 s   6 1.00
      82.6400000    0.0020060000
      12.4100000    0.0153430000
       2.8240000    0.0755790000
       0.7977000    0.2568750000
       0.2581000    0.4973680000
       0.0898900    0.2961330000
 s   6 1.00
      82.6400000    0.0000000000
      12.4100000    0.0000000000
       2.8240000    0.0000000000
       0.7977000    1.0000000000
       0.2581000    0.0000000000
       0.0898900    0.0000000000
 s   6 1.00
      82.6400000    0.0000000000
      12.4100000    0.0000000000
       2.8240000    0.0000000000
       0.7977000    0.0000000000
       0.2581000    1.0000000000
       0.0898900    0.0000000000
 s   6 1.00
      82.6400000    0.0000000000
      12.4100000    0.0000000000
       2.8240000    0.0000000000
       0.7977000    0.0000000000
       0.2581000    0.0000000000
       0.0898900    1.0000000000
 p   3 1.00
       2.2920000    1.0000000000
       0.8380000    0.0000000000
       0.2920000    0.0000000000
 p   3 1.00
       2.2920000    0.0000000000
       0.8380000    1.0000000000
       0.2920000    0.0000000000
 p   3 1.00
       2.2920000    0.0000000000
       0.8380000    0.0000000000
       0.2920000    1.0000000000
 d   2 1.00
       2.0620000    1.0000000000
       0.6620000    0.0000000000
 d   2 1.00
       2.0620000    0.0000000000
       0.6620000    1.0000000000
 f   1 1.00
       1.3970000    1.0000000000

    3 0
 s   6 1.00
      82.6400000    0.0020060000
      12.4100000    0.0153430000
       2.8240000    0.0755790000
       0.7977000    0.2568750000
       0.2581000    0.4973680000
       0.0898900    0.2961330000
 s   6 1.00
      82.6400000    0.0000000000
      12.4100000    0.0000000000
       2.8240000    0.0000000000
       0.7977000    1.0000000000
       0.2581000    0.0000000000
       0.0898900    0.0000000000
 s   6 1.00
      82.6400000    0.0000000000
      12.4100000    0.0000000000
       2.8240000    0.0000000000
       0.7977000    0.0000000000
       0.2581000    1.0000000000
       0.0898900    0.0000000000
 s   6 1.00
      82.6400000    0.0000000000
      12.4100000    0.0000000000
       2.8240000    0.0000000000
       0.7977000    0.0000000000
       0.2581000    0.0000000000
       0.0898900    1.0000000000
 p   3 1.00
       2.2920000    1.0000000000
       0.8380000    0.0000000000
       0.2920000    0.0000000000
 p   3 1.00
       2.2920000    0.0000000000
       0.8380000    1.0000000000
       0.2920000    0.0000000000
 p   3 1.00
       2.2920000    0.0000000000
       0.8380000    0.0000000000
       0.2920000    1.0000000000
 d   2 1.00
       2.0620000    1.0000000000
       0.6620000    0.0000000000
 d   2 1.00
       2.0620000    0.0000000000
       0.6620000    1.0000000000
 f   1 1.00
       1.3970000    1.0000000000

[SCFCONV]
scf-first  1  THROUGH  11
      -75.8762420529
      -76.0538813899
      -76.0634879415
      -76.0645868104
      -76.0647239885
      -76.0647432220
      -76.0647443301
      -76.0647443572
      -76.0647443576
      -76.0647443576
      -76.0647443576
[TITLE]
*** Dalton interface to Molden, wave function type : CC            13Apr24   13:
[Atoms] AU
O          1     8         0.0000000000         0.0000000000         0.124144424
H          2     1         0.0000000000         1.4315300000        -0.985265576
H          3     1         0.0000000000        -1.4315300000        -0.985265576
[5D7F]
[9G]
[MO]
Sym= A
Ene=  -20.5600
Spin= Alpha
Occup=  2.0000
    1       -1.000462
    2       -0.002420
    3       -0.000755
    4        0.003846
    5        0.001224
    8        0.008446
   11       -0.003326
   14       -0.004737
   17       -0.002121
   18       -0.000028
   21        0.000120
   23        0.000082
   26       -0.000364
   28       -0.000123
   31       -0.000498
   33       -0.000048
   36       -0.000076
   40        0.000163
   43        0.000282
   47       -0.000016
   50       -0.000020
   54        0.000012
   56        0.000281
   57       -0.001103
   58       -0.000865
   59        0.000058
   61       -0.000003
   62        0.000010
   64        0.000533
   65       -0.000487
   67        0.000173
   68       -0.000239
   69        0.000008
   71        0.000043
   72        0.000026
   74       -0.000055
   76        0.000150
   77        0.000074
   79        0.000017
   81       -0.000015
   82       -0.000004
   85       -0.000006
   86        0.000281
   87       -0.001103
   88       -0.000865
   89        0.000058
   91        0.000003
   92        0.000010
   94       -0.000533
   95       -0.000487
   97       -0.000173
   98       -0.000239
   99        0.000008
  101       -0.000043
  102        0.000026
  104       -0.000055
  106       -0.000150
  107        0.000074
  109        0.000017
  111        0.000015
  112       -0.000004
  115        0.000006
Sym= A
Ene=   -1.3490
Spin= Alpha
Occup=  2.0000
    1        0.003751
    2       -0.882266
    3        0.008099
    4        0.022674
    5        0.032613
    8        0.111911
   11        0.003242
   14        0.002750
   17       -0.019112
   18       -0.000311
   21        0.000905
   23       -0.001613
   26        0.006192
   28       -0.002608
   31        0.004078
   33       -0.000513
   36       -0.001201
   40       -0.000520
   43       -0.002330
   47        0.000152
   50        0.000297
   54       -0.000106
   56       -0.390837
   57        0.017813
   58        0.146037
   59        0.113282
   61        0.005518
   62       -0.003736
   64        0.009751
   65       -0.006957
   67        0.005521
   68       -0.002762
   69        0.000001
   71        0.001953
   72        0.001462
   74       -0.000046
   76        0.001161
   77        0.000840
   79        0.000242
   81        0.000205
   82        0.000458
   85       -0.000362
   86       -0.390837
   87        0.017813
   88        0.146037
   89        0.113282
   91       -0.005518
   92       -0.003736
   94       -0.009751
   95       -0.006957
   97       -0.005521
   98       -0.002762
   99        0.000001
  101       -0.001953
  102        0.001462
  104       -0.000046
  106       -0.001161
  107        0.000840
  109        0.000242
  111       -0.000205
  112        0.000458
  115        0.000362
Sym= A
Ene=   -0.7136
Spin= Alpha
Occup=  2.0000
    7       -0.730305
   10        0.000477
   13        0.023821
   16        0.067705
   20        0.005001
   25        0.018307
   30        0.019195
   35       -0.000666
   39        0.001525
   42       -0.000459
   46        0.003233
   49       -0.000278
   53       -0.000571
   56       -0.613819
   57        0.016363
   58        0.122200
   59        0.143956
   61        0.004333
   62       -0.005421
   64        0.009366
   65       -0.013425
   67        0.013587
   68       -0.016679
   69       -0.000908
   71        0.002389
   72        0.000760
   74       -0.001593
   76        0.004056
   77        0.002270
   79        0.000124
   81        0.000789
   82        0.000636
   85       -0.000122
   86        0.613819
   87       -0.016363
   88       -0.122200
   89       -0.143956
   91        0.004333
   92        0.005421
   94        0.009366
   95        0.013425
   97        0.013587
   98        0.016679
   99        0.000908
  101        0.002389
  102       -0.000760
  104        0.001593
  106        0.004056
  107       -0.002270
  109       -0.000124
  111        0.000789
  112       -0.000636
  115       -0.000122
Sym= A
Ene=   -0.5819
Spin= Alpha
Occup=  2.0000
    1       -0.002689
    2       -0.306212
    3       -0.005096
    4       -0.002777
    5       -0.110868
    8       -0.808076
   11        0.001931
   14        0.007574
   17       -0.020904
   18        0.002207
   21       -0.001502
   23        0.008041
   26       -0.004481
   28        0.016070
   31       -0.008685
   33        0.000187
   36        0.001534
   40       -0.000463
   43        0.003434
   47       -0.000195
   50       -0.000501
   54        0.000114
   56        0.370682
   57       -0.009472
   58       -0.087733
   59       -0.096567
   61       -0.004681
   62       -0.000370
   64       -0.008961
   65       -0.003359
   67       -0.007839
   68       -0.018233
   69       -0.001208
   71       -0.000755
   72       -0.001422
   74       -0.002651
   76        0.002120
   77       -0.002047
   79       -0.000446
   81        0.000819
   82       -0.000052
   85        0.000485
   86        0.370682
   87       -0.009472
   88       -0.087733
   89       -0.096567
   91        0.004681
   92       -0.000370
   94        0.008961
   95       -0.003359
   97        0.007839
   98       -0.018233
   99       -0.001208
  101        0.000755
  102       -0.001422
  104       -0.002651
  106       -0.002120
  107       -0.002047
  109       -0.000446
  111       -0.000819
  112       -0.000052
  115       -0.000485
Sym= A
Ene=   -0.5081
Spin= Alpha
Occup=  2.0000
    6        0.921100
    9       -0.002185
   12       -0.005865
   15        0.062477
   19       -0.002115
   24       -0.007608
   29       -0.015680
   34        0.000430
   38       -0.001162
   41        0.001536
   45       -0.003780
   48       -0.000041
   52        0.000380
   60        0.004495
   63        0.011977
   66        0.028399
   70        0.001305
   73       -0.001635
   75        0.002937
   78       -0.004396
   80        0.000346
   83       -0.001080
   84       -0.000912
   90        0.004495
   93        0.011977
   96        0.028399
  100        0.001305
  103        0.001635
  105        0.002937
  108        0.004396
  110        0.000346
  113        0.001080
  114       -0.000912
Sym= A
Ene=    0.1170
Spin= Alpha
Occup=  0.0000
    1       -0.009929
    2       -0.277879
    3       -0.027698
    4        0.225823
    5       -1.816674
    8        0.209269
   11       -0.031509
   14        0.105215
   17        0.397993
   18       -0.000518
   21       -0.000256
   23       -0.000832
   26       -0.005976
   28        0.009883
   31        0.087841
   33        0.002363
   36        0.003497
   40       -0.015731
   43       -0.024072
   47        0.001790
   50        0.001977
   54       -0.001528
   56        0.001725
   57        0.093181
   58        0.308935
   59        0.980441
   61       -0.003357
   62        0.001872
   64        0.017101
   65        0.001836
   67       -0.154403
   68        0.133033
   69       -0.000058
   71        0.000998
   72        0.000982
   74        0.009203
   76       -0.004118
   77        0.003894
   79        0.001566
   81        0.001764
   82        0.004383
   85       -0.002385
   86        0.001725
   87        0.093181
   88        0.308935
   89        0.980441
   91        0.003357
   92        0.001872
   94       -0.017101
   95        0.001836
   97        0.154403
   98        0.133033
   99       -0.000058
  101       -0.000998
  102        0.000982
  104        0.009203
  106        0.004118
  107        0.003894
  109        0.001566
  111       -0.001764
  112        0.004383
  115        0.002385
Sym= A
Ene=    0.1710
Spin= Alpha
Occup=  0.0000
    7       -0.299559
   10        0.012486
   13       -0.065673
   16       -0.981466
   20        0.002378
   25       -0.014390
   30        0.118903
   35        0.001698
   39       -0.000649
   42       -0.015487
   46        0.001908
   49        0.001800
   53       -0.000962
   56       -0.049029
   57        0.072124
   58        0.333190
   59        2.098464
   61       -0.003515
   62        0.003434
   64        0.020312
   65       -0.030752
   67       -0.244669
   68        0.186855
   69       -0.001649
   71        0.003222
   72        0.002371
   74       -0.009364
   76       -0.008828
   77       -0.017656
   79       -0.000747
   81        0.003561
   82        0.001786
   85       -0.000315
   86        0.049029
   87       -0.072124
   88       -0.333190
   89       -2.098464
   91       -0.003515
   92       -0.003434
   94        0.020312
   95        0.030752
   97       -0.244669
   98       -0.186855
   99        0.001649
  101        0.003222
  102       -0.002371
  104        0.009364
  106       -0.008828
  107        0.017656
  109        0.000747
  111        0.003561
  112       -0.001786
  115       -0.000315
Sym= A
Ene=    0.4491
Spin= Alpha
Occup=  0.0000
    7        0.226323
   10       -0.041661
   13        0.939606
   16        2.259680
   20        0.014954
   25       -0.053669
   30       -0.630918
   35       -0.003777
   39        0.001013
   42        0.087070
   46       -0.053640
   49       -0.000600
   53        0.009769
   56       -0.293635
   57       -0.234476
   58       -2.870308
   59        0.421768
   61       -0.023598
   62        0.023194
   64        0.295616
   65       -0.203524
   67        0.407113
   68       -0.246555
   69        0.000273
   71        0.011603
   72        0.010463
   74        0.019349
   76        0.110732
   77        0.071684
   79        0.007318
   81        0.000916
   82        0.009212
   85       -0.005029
   86        0.293635
   87        0.234476
   88        2.870308
   89       -0.421768
   91       -0.023598
   92       -0.023194
   94        0.295616
   95        0.203524
   97        0.407113
   98        0.246555
   99       -0.000273
  101        0.011603
  102       -0.010463
  104       -0.019349
  106        0.110732
  107       -0.071684
  109       -0.007318
  111        0.000916
  112       -0.009212
  115       -0.005029
Sym= A
Ene=    0.4623
Spin= Alpha
Occup=  0.0000
    1        0.031365
    2       -0.037794
    3        0.259097
    4       -1.419856
    5       -8.157291
    8       -0.326211
   11       -0.008302
   14        1.072313
   17        3.617671
   18       -0.002636
   21       -0.006569
   23        0.014502
   26        0.036306
   28       -0.111474
   31        0.618037
   33       -0.001317
   36       -0.001105
   40       -0.054109
   43       -0.119001
   47        0.007694
   50        0.010816
   54       -0.006543
   56        0.011296
   57        0.213377
   58        5.059667
   59        0.103435
   61        0.022143
   62       -0.008983
   64       -0.304644
   65        0.230081
   67       -1.328278
   68        1.033864
   69        0.000823
   71       -0.009182
   72       -0.007888
   74        0.028004
   76       -0.223870
   77       -0.138775
   79       -0.006766
   81       -0.012615
   82       -0.021487
   85        0.011534
   86        0.011296
   87        0.213377
   88        5.059667
   89        0.103435
   91       -0.022143
   92       -0.008983
   94        0.304644
   95        0.230081
   97        1.328278
   98        1.033864
   99        0.000823
  101        0.009182
  102       -0.007888
  104        0.028004
  106        0.223870
  107       -0.138775
  109       -0.006766
  111        0.012615
  112       -0.021487
  115       -0.011534
Sym= A
Ene=    0.5013
Spin= Alpha
Occup=  0.0000
    1        0.001127
    2        0.206894
    3       -0.036812
    4        0.143421
    5       -2.389184
    8       -0.422323
   11       -0.025175
   14        0.075439
   17        1.023001
   18       -0.000665
   21        0.008466
   23        0.020564
   26       -0.019018
   28       -0.128292
   31        0.051196
   33       -0.000388
   36        0.001901
   40        0.015351
   43        0.011785
   47        0.001068
   50        0.001852
   54        0.000689
   56       -0.468518
   57        0.082451
   58        0.279788
   59        0.982723
   61       -0.030543
   62        0.010489
   64        0.105792
   65       -0.062486
   67       -0.855816
   68        0.269518
   69        0.001954
   71        0.009534
   72        0.003642
   74       -0.039716
   76       -0.017829
   77       -0.020791
   79       -0.000984
   81        0.007986
   82        0.001168
   85        0.001431
   86       -0.468518
   87        0.082451
   88        0.279788
   89        0.982723
   91        0.030543
   92        0.010489
   94       -0.105792
   95       -0.062486
   97        0.855816
   98        0.269518
   99        0.001954
  101       -0.009534
  102        0.003642
  104       -0.039716
  106        0.017829
  107       -0.020791
  109       -0.000984
  111       -0.007986
  112        0.001168
  115       -0.001431
Sym= A
Ene=    0.5837
Spin= Alpha
Occup=  0.0000
    6        0.718714
    9       -0.138155
   12        0.423185
   15       -1.550177
   19        0.002957
   24       -0.023457
   29        0.112006
   34        0.002827
   38       -0.005234
   41       -0.013796
   45        0.019184
   48        0.000913
   52        0.001404
   60       -0.008764
   63        0.033866
   66        0.078462
   70       -0.004329
   73        0.006872
   75        0.022421
   78       -0.043414
   80       -0.002920
   83        0.005837
   84        0.002325
   90       -0.008764
   93        0.033866
   96        0.078462
  100       -0.004329
  103       -0.006872
  105        0.022421
  108        0.043414
  110       -0.002920
  113       -0.005837
  114        0.002325
Sym= A
Ene=    0.6049
Spin= Alpha
Occup=  0.0000
    1        0.000655
    2        0.158845
    3       -0.026018
    4        0.147520
    5        0.178496
    8       -0.187368
   11        0.028854
   14       -0.371860
   17       -1.440882
   18       -0.004376
   21       -0.000683
   23       -0.017590
   26       -0.009648
   28        0.560206
   31        0.304870
   33        0.010800
   36        0.003851
   40       -0.097163
   43       -0.017643
   47       -0.000538
   50       -0.009344
   54       -0.006531
   56       -0.119316
   57        0.101465
   58       -0.933471
   59        0.457389
   61       -0.006074
   62        0.025357
   64        0.063691
   65       -0.028023
   67        0.560920
   68        1.026200
   69       -0.007019
   71        0.002802
   72        0.002893
   74        0.175016
   76       -0.056545
   77        0.106228
   79        0.009144
   81       -0.027221
   82        0.007664
   85       -0.016169
   86       -0.119316
   87        0.101465
   88       -0.933471
   89        0.457389
   91        0.006074
   92        0.025357
   94       -0.063691
   95       -0.028023
   97       -0.560920
   98        1.026200
   99       -0.007019
  101       -0.002802
  102        0.002893
  104        0.175016
  106        0.056545
  107        0.106228
  109        0.009144
  111        0.027221
  112        0.007664
  115        0.016169
Sym= A
Ene=    0.6145
Spin= Alpha
Occup=  0.0000
    7        0.565948
   10        0.072515
   13       -1.111082
   16       -4.042538
   20       -0.005309
   25        0.034496
   30        0.881206
   35        0.004125
   39       -0.002381
   42       -0.103146
   46        0.041518
   49        0.004260
   53       -0.010717
   56       -0.442829
   57        0.373489
   58        3.375298
   59        2.196107
   61       -0.003793
   62        0.007561
   64       -0.209175
   65        0.114814
   67       -1.512198
   68        1.188201
   69       -0.001212
   71       -0.001984
   72        0.000118
   74       -0.027285
   76       -0.158417
   77       -0.135650
   79       -0.007668
   81        0.002556
   82       -0.006618
   85        0.005328
   86        0.442829
   87       -0.373489
   88       -3.375298
   89       -2.196107
   91       -0.003793
   92       -0.007561
   94       -0.209175
   95       -0.114814
   97       -1.512198
   98       -1.188201
   99        0.001212
  101       -0.001984
  102       -0.000118
  104        0.027285
  106       -0.158417
  107        0.135650
  109        0.007668
  111        0.002556
  112        0.006618
  115        0.005328
Sym= A
Ene=    0.6565
Spin= Alpha
Occup=  0.0000
   22        0.006569
   27        0.015313
   32       -0.279688
   37       -0.007811
   44        0.082676
   51       -0.004190
   55        0.005515
   60        0.040177
   63       -0.109269
   66        1.114559
   70       -0.004481
   73        0.000806
   75        0.099617
   78       -0.092472
   80        0.006257
   83       -0.020179
   84       -0.016598
   90       -0.040177
   93        0.109269
   96       -1.114559
  100        0.004481
  103        0.000806
  105       -0.099617
  108       -0.092472
  110       -0.006257
  113       -0.020179
  114        0.016598
Sym= A
Ene=    0.7179
Spin= Alpha
Occup=  0.0000
    6       -0.117278
    9        0.035402
   12       -0.316446
   15       -1.443628
   19       -0.007123
   24       -0.012535
   29        0.238881
   34        0.004705
   38       -0.006407
   41       -0.039262
   45        0.070657
   48        0.000715
   52       -0.008624
   60        0.040413
   63       -0.127466
   66        1.331753
   70        0.001601
   73        0.007905
   75        0.056373
   78       -0.147964
   80        0.004401
   83       -0.021235
   84       -0.019384
   90        0.040413
   93       -0.127466
   96        1.331753
  100        0.001601
  103       -0.007905
  105        0.056373
  108        0.147964
  110        0.004401
  113        0.021235
  114       -0.019384
Sym= A
Ene=    0.8518
Spin= Alpha
Occup=  0.0000
    1        0.013454
    2       -0.446791
    3       -0.031027
    4       -0.743425
    5        9.321357
    8       -0.265121
   11        0.209436
   14       -1.392514
   17       -2.089938
   18       -0.007175
   21        0.017951
   23        0.016639
   26       -0.057786
   28       -0.041185
   31       -0.580598
   33       -0.006991
   36       -0.012172
   40        0.105824
   43        0.207583
   47       -0.014994
   50       -0.019706
   54        0.009937
   56        0.322569
   57       -0.519428
   58       -3.990620
   59       -0.691418
   61       -0.002470
   62        0.012624
   64        0.320318
   65       -0.316346
   67        1.048079
   68       -0.594376
   69        0.003740
   71        0.022003
   72        0.011753
   74       -0.045876
   76        0.115346
   77        0.083720
   79        0.004667
   81       -0.006829
   82       -0.004277
   85        0.000902
   86        0.322569
   87       -0.519428
   88       -3.990620
   89       -0.691418
   91        0.002470
   92        0.012624
   94       -0.320318
   95       -0.316346
   97       -1.048079
   98       -0.594376
   99        0.003740
  101       -0.022003
  102        0.011753
  104       -0.045876
  106       -0.115346
  107        0.083720
  109        0.004667
  111        0.006829
  112       -0.004277
  115       -0.000902
Sym= A
Ene=    0.9195
Spin= Alpha
Occup=  0.0000
    7        0.081949
   10       -0.052703
   13        0.424307
   16        2.204037
   20        0.000875
   25       -0.005331
   30       -0.160385
   35        0.004135
   39        0.004924
   42       -0.054365
   46       -0.066183
   49        0.010341
   53        0.007313
   56        0.095439
   57       -0.141872
   58       -1.142311
   59       -0.088183
   61       -0.034904
   62       -0.037004
   64        0.211968
   65        0.094652
   67       -1.086113
   68       -1.345809
   69        0.002699
   71        0.001948
   72        0.012784
   74       -0.120783
   76        0.049330
   77       -0.101043
   79       -0.013923
   81        0.027266
   82        0.000100
   85        0.018271
   86       -0.095439
   87        0.141872
   88        1.142311
   89        0.088183
   91       -0.034904
   92        0.037004
   94        0.211968
   95       -0.094652
   97       -1.086113
   98        1.345809
   99       -0.002699
  101        0.001948
  102       -0.012784
  104        0.120783
  106        0.049330
  107        0.101043
  109        0.013923
  111        0.027266
  112       -0.000100
  115        0.018271
Sym= A
Ene=    1.1116
Spin= Alpha
Occup=  0.0000
    1        0.024059
    2       -0.129573
    3        0.329273
    4       -2.985500
    5       -8.552562
    8        0.485807
   11       -0.018335
   14        1.688261
   17        1.382934
   18        0.004906
   21       -0.017982
   23       -0.032567
   26        0.110061
   28        0.175678
   31        0.078257
   33       -0.006711
   36       -0.025802
   40       -0.016704
   43        0.041261
   47        0.003891
   50        0.001029
   54        0.003373
   56        0.091465
   57       -0.121286
   58        4.980011
   59        0.440729
   61        0.002784
   62       -0.015830
   64       -0.068750
   65        0.109149
   67       -2.480911
   68        2.034117
   69       -0.009388
   71        0.012125
   72        0.003303
   74        0.079631
   76       -0.417280
   77       -0.217825
   79       -0.031719
   81       -0.025652
   82       -0.055408
   85        0.021148
   86        0.091465
   87       -0.121286
   88        4.980011
   89        0.440729
   91       -0.002784
   92       -0.015830
   94        0.068750
   95        0.109149
   97        2.480911
   98        2.034117
   99       -0.009388
  101       -0.012125
  102        0.003303
  104        0.079631
  106        0.417280
  107       -0.217825
  109       -0.031719
  111        0.025652
  112       -0.055408
  115       -0.021148
Sym= A
Ene=    1.1567
Spin= Alpha
Occup=  0.0000
    7        0.526768
   10        0.011267
   13        1.416645
   16        1.337255
   20        0.018772
   25       -0.096595
   30        0.472319
   35        0.016333
   39       -0.012466
   42       -0.130458
   46        0.043194
   49        0.007964
   53       -0.007036
   56       -0.477984
   57        0.332332
   58       -3.000580
   59       -0.935128
   61        0.003846
   62       -0.006220
   64       -0.136286
   65        0.058703
   67        2.322162
   68       -1.722073
   69       -0.010997
   71       -0.013175
   72       -0.022839
   74       -0.036758
   76        0.287892
   77        0.218092
   79        0.006207
   81        0.035297
   82        0.031794
   85       -0.022753
   86        0.477984
   87       -0.332332
   88        3.000580
   89        0.935128
   91        0.003846
   92        0.006220
   94       -0.136286
   95       -0.058703
   97        2.322162
   98        1.722073
   99        0.010997
  101       -0.013175
  102        0.022839
  104        0.036758
  106        0.287892
  107       -0.218092
  109       -0.006207
  111        0.035297
  112       -0.031794
  115       -0.022753
Sym= A
Ene=    1.3464
Spin= Alpha
Occup=  0.0000
    7       -0.181602
   10        0.141263
   13       -4.183650
   16       -3.902235
   20       -0.029071
   25        0.399145