[Molden Format]
[GTO]
    1 0
 s   9 1.00
   11720.0000000    0.0007100000
    1759.0000000    0.0054700000
     400.8000000    0.0278370000
     113.7000000    0.1048000000
      37.0300000    0.2830620000
      13.2700000    0.4487190000
       5.0250000    0.2709520000
       1.0130000    0.0154580000
       0.3023000   -0.0025850000
 s   9 1.00
   11720.0000000   -0.0001600000
    1759.0000000   -0.0012630000
     400.8000000   -0.0062670000
     113.7000000   -0.0257160000
      37.0300000   -0.0709240000
      13.2700000   -0.1654110000
       5.0250000   -0.1169550000
       1.0130000    0.5573680000
       0.3023000    0.5727590000
 s   9 1.00
   11720.0000000    0.0000000000
    1759.0000000    0.0000000000
     400.8000000    0.0000000000
     113.7000000    0.0000000000
      37.0300000    0.0000000000
      13.2700000    0.0000000000
       5.0250000    0.0000000000
       1.0130000    0.0000000000
       0.3023000    1.0000000000
 p   4 1.00
      17.7000000    0.0430180000
       3.8540000    0.2289130000
       1.0460000    0.5087280000
       0.2753000    0.4605310000
 p   4 1.00
      17.7000000    0.0000000000
       3.8540000    0.0000000000
       1.0460000    0.0000000000
       0.2753000    1.0000000000
 d   1 1.00
       1.1850000    1.0000000000

    2 0
 s   4 1.00
      13.0100000    0.0196850000
       1.9620000    0.1379770000
       0.4446000    0.4781480000
       0.1220000    0.5012400000
 s   4 1.00
      13.0100000    0.0000000000
       1.9620000    0.0000000000
       0.4446000    0.0000000000
       0.1220000    1.0000000000
 p   1 1.00
       0.7270000    1.0000000000

    3 0
 s   4 1.00
      13.0100000    0.0196850000
       1.9620000    0.1379770000
       0.4446000    0.4781480000
       0.1220000    0.5012400000
 s   4 1.00
      13.0100000    0.0000000000
       1.9620000    0.0000000000
       0.4446000    0.0000000000
       0.1220000    1.0000000000
 p   1 1.00
       0.7270000    1.0000000000

[SCFCONV]
scf-first  1  THROUGH   8
      -76.2303852936
      -76.3879573647
      -76.3979546320
      -76.3979255906
      -76.3980038336
      -76.3980039422
      -76.3980039428
      -76.3980039428
[TITLE]
*** Dalton interface to Molden, wave function type : KS-DFT        26Mar24   12:
[Atoms] AU
O          1     8         0.0000000000         0.0000000000         0.124144424
H          2     1         0.0000000000         1.4315300000        -0.985265576
H          3     1         0.0000000000        -1.4315300000        -0.985265576
[5D7F]
[9G]
[MO]
Sym= A
Ene=  -18.7664
Spin= Alpha
Occup=  2.0000
    1       -1.003126
    2       -0.017549
    3        0.015250
    6        0.002971
    9       -0.002191
   10        0.000001
   13        0.000505
   15        0.000903
   16       -0.001577
   18       -0.001048
   19        0.000957
   20        0.000903
   21       -0.001577
   23        0.001048
   24        0.000957
Sym= A
Ene=   -0.8947
Spin= Alpha
Occup=  2.0000
    1        0.005459
    2       -0.867294
    3        0.159606
    6        0.183277
    9       -0.091915
   10       -0.002533
   13        0.004845
   15       -0.357882
   16        0.161977
   18        0.037550
   19       -0.018427
   20       -0.357882
   21        0.161977
   23       -0.037550
   24       -0.018427
Sym= A
Ene=   -0.4519
Spin= Alpha
Occup=  2.0000
    5       -0.737913
    8        0.152524
   12        0.022716
   15       -0.565231
   16        0.164311
   18        0.013422
   19       -0.026915
   20        0.565231
   21       -0.164311
   23        0.013422
   24        0.026915
Sym= A
Ene=   -0.2984
Spin= Alpha
Occup=  2.0000
    1        0.008806
    2       -0.335657
    3       -0.197207
    6       -0.794975
    9        0.017102
   10        0.018462
   13       -0.001461
   15        0.338847
   16       -0.118558
   18       -0.022343
   19       -0.017442
   20        0.338847
   21       -0.118558
   23        0.022343
   24       -0.017442
Sym= A
Ene=   -0.2206
Spin= Alpha
Occup=  2.0000
    4        0.928349
    7        0.060014
   11       -0.019443
   17        0.033108
   22        0.033108
Sym= A
Ene=    0.0280
Spin= Alpha
Occup=  0.0000
    1        0.026143
    2       -0.275370
    3       -0.729098
    6        0.377401
    9        0.132425
   10       -0.008625
   13        0.003694
   15        0.202793
   16        0.654404
   18        0.005833
   19        0.002475
   20        0.202793
   21        0.654404
   23       -0.005833
   24        0.002475
Sym= A
Ene=    0.1035
Spin= Alpha
Occup=  0.0000
    5       -0.567691
    8       -0.338953
   12        0.009461
   15        0.196762
   16        1.187856
   18        0.000823
   19       -0.005235
   20       -0.196762
   21       -1.187856
   23        0.000823
   24        0.005235
Sym= A
Ene=    0.5173
Spin= Alpha
Occup=  0.0000
    5        0.438372
    8        0.108170
   12        0.104000
   15       -1.598664
   16        1.686761
   18       -0.058885
   19        0.132787
   20        1.598664
   21       -1.686761
   23       -0.058885
   24       -0.132787
Sym= A
Ene=    0.5671
Spin= Alpha
Occup=  0.0000
    1        0.065174
    2        0.468152
    3       -0.599666
    6       -0.564642
    9        0.322586
   10        0.001100
   13        0.095208
   15       -1.376874
   16        1.309808
   18       -0.244610
   19        0.050987
   20       -1.376874
   21        1.309808
   23        0.244610
   24        0.050987
Sym= A
Ene=    0.8512
Spin= Alpha
Occup=  0.0000
    1        0.016225
    2        0.305670
    3        0.451855
    6        1.094528
    9       -1.752264
   10        0.013186
   13        0.018337
   15       -0.927976
   16        0.386254
   18        0.029225
   19       -0.223784
   20       -0.927976
   21        0.386254
   23       -0.029225
   24       -0.223784
Sym= A
Ene=    0.8639
Spin= Alpha
Occup=  0.0000
    4       -1.404645
    7        1.655385
   11        0.002418
   17        0.031766
   22        0.031766
Sym= A
Ene=    0.9453
Spin= Alpha
Occup=  0.0000
    5       -1.085781
    8        2.276070
   12       -0.017381
   15       -0.647779
   16       -0.524676
   18        0.252457
   19       -0.121012
   20        0.647779
   21        0.524676
   23        0.252457
   24        0.121012
Sym= A
Ene=    1.1590
Spin= Alpha
Occup=  0.0000
    1        0.219455
    2        1.115220
    3       -1.207099
    6        0.182592
    9       -0.796479
   10       -0.126858
   13       -0.015752
   15       -0.531810
   16        0.488900
   18        0.334382
   19        0.530730
   20       -0.531810
   21        0.488900
   23       -0.334382
   24        0.530730
Sym= A
Ene=    1.1885
Spin= Alpha
Occup=  0.0000
   14       -0.140672
   17       -0.682321
   22        0.682321
Sym= A
Ene=    1.3806
Spin= Alpha
Occup=  0.0000
    4        0.008867
    7       -0.664246
   11       -0.172534
   17        0.761634
   22        0.761634
Sym= A
Ene=    1.5394
Spin= Alpha
Occup=  0.0000
    1       -0.723452
    2       -3.133319
    3        4.808555
    6       -0.102284
    9       -0.956006
   10       -0.123041
   13        0.110299
   15       -1.375233
   16        0.284595
   18        0.359025
   19        0.044394
   20       -1.375233
   21        0.284595
   23       -0.359025
   24        0.044394
Sym= A
Ene=    1.6204
Spin= Alpha
Occup=  0.0000
    5       -0.024799
    8        0.944945
   12        0.033359
   15       -0.664174
   16        0.219395
   18       -0.457506
   19       -0.702753
   20        0.664174
   21       -0.219395
   23       -0.457506
   24        0.702753
Sym= A
Ene=    2.0475
Spin= Alpha
Occup=  0.0000
    5        1.123473
    8       -0.305263
   12        0.141453
   15       -0.468742
   16       -0.158664
   18        0.744389
   19       -0.556511
   20        0.468742
   21        0.158664
   23        0.744389
   24        0.556511
Sym= A
Ene=    2.0846
Spin= Alpha
Occup=  0.0000
    1       -0.251723
    2       -1.319578
    3       -0.149179
    6        0.911217
    9       -0.190564
   10        0.050844
   13       -0.218649
   15        0.817771
   16       -0.217796
   18       -0.762380
   19        0.550508
   20        0.817771
   21       -0.217796
   23        0.762380
   24        0.550508
Sym= A
Ene=    2.8462
Spin= Alpha
Occup=  0.0000
    4        0.022888
    7       -0.332075
   11        1.040679
   17        0.406240
   22        0.406240
Sym= A
Ene=    2.8890
Spin= Alpha
Occup=  0.0000
   14        1.064607
   17       -0.376684
   22        0.376684
Sym= A
Ene=    3.0545
Spin= Alpha
Occup=  0.0000
    1       -0.085228
    2       -0.311689
    3        0.715207
    6       -0.008965
    9       -0.534995
   10        1.080014
   13        0.192305
   15       -0.495922
   16        0.211275
   18        0.348332
   19        0.329120
   20       -0.495922
   21        0.211275
   23       -0.348332
   24        0.329120
Sym= A
Ene=    3.3826
Spin= Alpha
Occup=  0.0000
    1        0.154479
    2        0.398452
    3       -2.545792
    6        0.566365
    9        0.689277
   10       -0.151647
   13        1.157009
   15        2.104542
   16       -0.846586
   18       -0.633450
   19        0.496577
   20        2.104542
   21       -0.846586
   23        0.633450
   24        0.496577
Sym= A
Ene=    3.6500
Spin= Alpha
Occup=  0.0000
    5       -0.656374
    8       -0.879029
   12        1.326182
   15        1.843181
   16       -0.608404
   18       -0.616068
   19        0.504630
   20       -1.843181
   21        0.608404
   23       -0.616068
   24       -0.504630
[End of Molden output from Dalton]
