[Molden Format]
[GTO]
    1 0
 s  10 1.00
   15330.0000000    0.0005080000
    2299.0000000    0.0039290000
     522.4000000    0.0202430000
     147.3000000    0.0791810000
      47.5500000    0.2306870000
      16.7600000    0.4331180000
       6.2070000    0.3502600000
       1.7520000    0.0427280000
       0.6882000   -0.0081540000
       0.2384000    0.0023810000
 s  10 1.00
   15330.0000000   -0.0001150000
    2299.0000000   -0.0008950000
     522.4000000   -0.0046360000
     147.3000000   -0.0187240000
      47.5500000   -0.0584630000
      16.7600000   -0.1364630000
       6.2070000   -0.1757400000
       1.7520000    0.1609340000
       0.6882000    0.6034180000
       0.2384000    0.3787650000
 s  10 1.00
   15330.0000000    0.0000000000
    2299.0000000    0.0000000000
     522.4000000    0.0000000000
     147.3000000    0.0000000000
      47.5500000    0.0000000000
      16.7600000    0.0000000000
       6.2070000    0.0000000000
       1.7520000    1.0000000000
       0.6882000    0.0000000000
       0.2384000    0.0000000000
 s  10 1.00
   15330.0000000    0.0000000000
    2299.0000000    0.0000000000
     522.4000000    0.0000000000
     147.3000000    0.0000000000
      47.5500000    0.0000000000
      16.7600000    0.0000000000
       6.2070000    0.0000000000
       1.7520000    0.0000000000
       0.6882000    0.0000000000
       0.2384000    1.0000000000
 p   5 1.00
      34.4600000    0.0159280000
       7.7490000    0.0997400000
       2.2800000    0.3104920000
       0.7156000    0.4910260000
       0.2140000    0.3363370000
 p   5 1.00
      34.4600000    0.0000000000
       7.7490000    0.0000000000
       2.2800000    0.0000000000
       0.7156000    1.0000000000
       0.2140000    0.0000000000
 p   5 1.00
      34.4600000    0.0000000000
       7.7490000    0.0000000000
       2.2800000    0.0000000000
       0.7156000    0.0000000000
       0.2140000    1.0000000000
 d   2 1.00
       2.3140000    1.0000000000
       0.6450000    0.0000000000
 d   2 1.00
       2.3140000    0.0000000000
       0.6450000    1.0000000000
 f   1 1.00
       1.4280000    1.0000000000

    2 0
 s   5 1.00
      33.8700000    0.0060680000
       5.0950000    0.0453080000
       1.1590000    0.2028220000
       0.3258000    0.5039030000
       0.1027000    0.3834210000
 s   5 1.00
      33.8700000    0.0000000000
       5.0950000    0.0000000000
       1.1590000    0.0000000000
       0.3258000    1.0000000000
       0.1027000    0.0000000000
 s   5 1.00
      33.8700000    0.0000000000
       5.0950000    0.0000000000
       1.1590000    0.0000000000
       0.3258000    0.0000000000
       0.1027000    1.0000000000
 p   2 1.00
       1.4070000    1.0000000000
       0.3880000    0.0000000000
 p   2 1.00
       1.4070000    0.0000000000
       0.3880000    1.0000000000
 d   1 1.00
       1.0570000    1.0000000000

    3 0
 s   5 1.00
      33.8700000    0.0060680000
       5.0950000    0.0453080000
       1.1590000    0.2028220000
       0.3258000    0.5039030000
       0.1027000    0.3834210000
 s   5 1.00
      33.8700000    0.0000000000
       5.0950000    0.0000000000
       1.1590000    0.0000000000
       0.3258000    1.0000000000
       0.1027000    0.0000000000
 s   5 1.00
      33.8700000    0.0000000000
       5.0950000    0.0000000000
       1.1590000    0.0000000000
       0.3258000    0.0000000000
       0.1027000    1.0000000000
 p   2 1.00
       1.4070000    1.0000000000
       0.3880000    0.0000000000
 p   2 1.00
       1.4070000    0.0000000000
       0.3880000    1.0000000000
 d   1 1.00
       1.0570000    1.0000000000

[SCFCONV]
scf-first  1  THROUGH  11
      -75.8709418467
      -76.0465807341
      -76.0559108398
      -76.0569384845
      -76.0570670263
      -76.0570818439
      -76.0570826671
      -76.0570826840
      -76.0570826843
      -76.0570826843
      -76.0570826843
[TITLE]
*** Dalton interface to Molden, wave function type : CC            13Apr24   13:
[Atoms] AU
O          1     8         0.0000000000         0.0000000000         0.124144424
H          2     1         0.0000000000         1.4315300000        -0.985265576
H          3     1         0.0000000000        -1.4315300000        -0.985265576
[5D7F]
[9G]
[MO]
Sym= A
Ene=  -20.5550
Spin= Alpha
Occup=  2.0000
    1       -0.999304
    2        0.001042
    3       -0.000977
    4        0.000795
    7        0.004894
   10       -0.003894
   13       -0.001799
   14       -0.000022
   17        0.000048
   19        0.000169
   22       -0.000499
   24        0.000008
   27        0.000098
   31       -0.002118
   32        0.000054
   33        0.001065
   35        0.000237
   36       -0.000128
   38        0.000453
   39       -0.000307
   40        0.000056
   42       -0.000120
   43       -0.000013
   45       -0.002118
   46        0.000054
   47        0.001065
   49       -0.000237
   50       -0.000128
   52       -0.000453
   53       -0.000307
   54        0.000056
   56        0.000120
   57       -0.000013
Sym= A
Ene=   -1.3451
Spin= Alpha
Occup=  2.0000
    1        0.008766
    2       -0.864878
    3        0.006620
    4        0.043649
    7        0.114734
   10        0.007358
   13       -0.026166
   14       -0.001021
   17        0.003813
   19       -0.002887
   22        0.007621
   24       -0.000864
   27       -0.002856
   31       -0.374851
   32        0.116009
   33        0.137472
   35        0.010483
   36       -0.007420
   38        0.009841
   39       -0.004939
   40        0.000052
   42        0.001956
   43        0.001363
   45       -0.374851
   46        0.116009
   47        0.137472
   49       -0.010483
   50       -0.007420
   52       -0.009841
   53       -0.004939
   54        0.000052
   56       -0.001956
   57        0.001363
Sym= A
Ene=   -0.7090
Spin= Alpha
Occup=  2.0000
    6       -0.730235
    9        0.018573
   12        0.086324
   16        0.013083
   21        0.022495
   26       -0.000215
   30        0.003319
   31       -0.596314
   32        0.080745
   33        0.167054
   35        0.009473
   36       -0.012817
   38        0.019495
   39       -0.023865
   40       -0.001992
   42        0.005758
   43        0.003156
   45        0.596314
   46       -0.080745
   47       -0.167054
   49        0.009473
   50        0.012817
   52        0.019495
   53        0.023865
   54        0.001992
   56        0.005758
   57       -0.003156
Sym= A
Ene=   -0.5776
Spin= Alpha
Occup=  2.0000
    1       -0.002211
    2       -0.306958
    3       -0.004064
    4       -0.161144
    7       -0.808605
   10        0.014516
   13       -0.005325
   14        0.005550
   17       -0.003259
   19        0.018199
   22       -0.005774
   24       -0.000697
   27        0.003145
   31        0.361736
   32       -0.043044
   33       -0.112504
   35       -0.009526
   36       -0.000702
   38       -0.021433
   39       -0.012297
   40       -0.002213
   42       -0.000717
   43       -0.003279
   45        0.361736
   46       -0.043044
   47       -0.112504
   49        0.009526
   50       -0.000702
   52        0.021433
   53       -0.012297
   54       -0.002213
   56        0.000717
   57       -0.003279
Sym= A
Ene=   -0.5044
Spin= Alpha
Occup=  2.0000
    5        0.922808
    8       -0.008845
   11        0.065366
   15       -0.005215
   20       -0.018063
   25        0.001572
   29       -0.004014
   34        0.010052
   37        0.031191
   41        0.002868
   44       -0.004145
   48        0.010052
   51        0.031191
   55        0.002868
   58        0.004145
Sym= A
Ene=    0.1421
Spin= Alpha
Occup=  0.0000
    1        0.030580
    2       -0.177189
    3       -0.011377
    4       -1.482981
    7        0.204743
   10        0.093314
   13        0.392285
   14       -0.000995
   17       -0.002417
   19       -0.008868
   22        0.051579
   24       -0.004231
   27       -0.008605
   31        0.114723
   32        0.225306
   33        0.876947
   35        0.005652
   36       -0.001495
   38       -0.144026
   39        0.110394
   40        0.003931
   42       -0.017561
   43       -0.008391
   45        0.114723
   46        0.225306
   47        0.876947
   49       -0.005652
   50       -0.001495
   52        0.144026
   53        0.110394
   54        0.003931
   56        0.017561
   57       -0.008391
Sym= A
Ene=    0.2040
Spin= Alpha
Occup=  0.0000
    6       -0.351201
    9       -0.029505
   12       -0.722100
   16       -0.002913
   21        0.059768
   26       -0.000814
   30        0.002768
   31        0.071997
   32        0.100862
   33        1.737194
   35        0.011927
   36       -0.010818
   38       -0.133995
   39        0.108263
   40       -0.000661
   42       -0.009416
   43       -0.008965
   45       -0.071997
   46       -0.100862
   47       -1.737194
   49        0.011927
   50        0.010818
   52       -0.133995
   53       -0.108263
   54        0.000661
   56       -0.009416
   57        0.008965
Sym= A
Ene=    0.5436
Spin= Alpha
Occup=  0.0000
    6       -0.273317
    9       -0.145806
   12       -1.163345
   16       -0.027368
   21        0.141645
   26       -0.015084
   30        0.015807
   31        0.414036
   32        1.349086
   33       -0.746957
   35       -0.047633
   36        0.030153
   38       -0.046263
   39       -0.022762
   40       -0.004997
   42       -0.029820
   43       -0.015149
   45       -0.414036
   46       -1.349086
   47        0.746957
   49       -0.047633
   50       -0.030153
   52       -0.046263
   53        0.022762
   54        0.004997
   56       -0.029820
   57        0.015149
Sym= A
Ene=    0.6018
Spin= Alpha
Occup=  0.0000
    1       -0.024509
    2       -0.344318
    3        0.028207
    4       -0.634095
    7        0.239619
   10        0.040741
   13        0.603032
   14       -0.006092
   17       -0.020032
   19        0.010464
   22        0.038678
   24       -0.009657
   27       -0.017337
   31        0.341084
   32        1.274655
   33       -0.710135
   35       -0.031379
   36        0.017680
   38        0.198486
   39        0.069607
   40        0.012974
   42       -0.010505
   43       -0.009165
   45        0.341084
   46        1.274655
   47       -0.710135
   49        0.031379
   50        0.017680
   52       -0.198486
   53        0.069607
   54        0.012974
   56        0.010505
   57       -0.009165
Sym= A
Ene=    0.6684
Spin= Alpha
Occup=  0.0000
    1        0.035310
    2        0.126073
    3       -0.063354
    4        4.571083
    7        0.638633
   10       -0.206817
   13       -2.881386
   14       -0.016178
   17        0.022528
   19        0.086542
   22       -0.279830
   24        0.011131
   27        0.031248
   31        0.143710
   32       -2.363788
   33       -0.526903
   35        0.023326
   36       -0.013582
   38        0.952783
   39       -0.612883
   40        0.003532
   42        0.063810
   43        0.051977
   45        0.143710
   46       -2.363788
   47       -0.526903
   49       -0.023326
   50       -0.013582
   52       -0.952783
   53       -0.612883
   54        0.003532
   56       -0.063810
   57        0.051977
Sym= A
Ene=    0.7874
Spin= Alpha
Occup=  0.0000
    5        0.668300
    8        0.444659
   11       -1.398239
   15       -0.008725
   20        0.036086
   25       -0.002859
   29        0.006590
   34        0.012563
   37       -0.010322
   41        0.013983
   44       -0.019594
   48        0.012563
   51       -0.010322
   55        0.013983
   58        0.019594
Sym= A
Ene=    0.8003
Spin= Alpha
Occup=  0.0000
    1        0.017955
    2        0.210340
    3       -0.013568
    4        0.547840
    7       -0.140923
   10       -0.080012
   13       -1.267668
   14       -0.036640
   17       -0.009456
   19        0.141751
   22        0.070248
   24       -0.016233
   27        0.001967
   31        0.038894
   32       -0.955759
   33        0.243832
   35       -0.022307
   36       -0.037616
   38        0.528429
   39        0.692586
   40        0.043243
   42       -0.025860
   43        0.030889
   45        0.038894
   46       -0.955759
   47        0.243832
   49        0.022307
   50       -0.037616
   52       -0.528429
   53        0.692586
   54        0.043243
   56        0.025860
   57        0.030889
Sym= A
Ene=    0.8052
Spin= Alpha
Occup=  0.0000
    6        0.715733
    9       -0.373509
   12       -3.209946
   16       -0.025446
   21        0.456736
   26       -0.026323
   30        0.021058
   31       -0.125702
   32        1.713069
   33        1.521607
   35       -0.042320
   36        0.033228
   38       -0.925353
   39        0.755494
   40        0.001340
   42       -0.091338
   43       -0.060844
   45        0.125702
   46       -1.713069
   47       -1.521607
   49       -0.042320
   50       -0.033228
   52       -0.925353
   53       -0.755494
   54       -0.001340
   56       -0.091338
   57        0.060844
Sym= A
Ene=    0.8610
Spin= Alpha
Occup=  0.0000
   18        0.027408
   23       -0.031475
   28        0.016342
   34       -0.059959
   37        0.847474
   41        0.025374
   44       -0.012981
   48        0.059959
   51       -0.847474
   55       -0.025374
   58       -0.012981
Sym= A
Ene=    0.9549
Spin= Alpha
Occup=  0.0000
    5       -0.063901
    8       -0.028751
   11       -1.116285
   15       -0.024141
   20        0.003198
   25       -0.005677
   29        0.018215
   34       -0.072676
   37        1.006984
   41        0.003123
   44       -0.040135
   48       -0.072676
   51        1.006984
   55        0.003123
   58        0.040135
Sym= A
Ene=    1.1326
Spin= Alpha
Occup=  0.0000
    1       -0.265999
    2       -1.438247
    3       -0.020749
    4        7.589356
    7       -0.137052
   10       -0.987914
   13       -1.660612
   14        0.000594
   17        0.011123
   19       -0.040193
   22       -0.292082
   24        0.041478
   27        0.077893
   31        0.115076
   32       -2.996759
   33       -0.655099
   35        0.077740
   36       -0.079506
   38        1.165108
   39       -0.732581
   40       -0.039002
   42        0.152922
   43        0.100171
   45        0.115076
   46       -2.996759
   47       -0.655099
   49       -0.077740
   50       -0.079506
   52       -1.165108
   53       -0.732581
   54       -0.039002
   56       -0.152922
   57        0.100171
Sym= A
Ene=    1.1966
Spin= Alpha
Occup=  0.0000
    6        0.064174
    9        0.126611
   12        1.625766
   16        0.002977
   21       -0.068328
   26       -0.004720
   30       -0.011742
   31        0.038830
   32       -0.920798
   33       -0.083647
   35        0.068982
   36        0.058978
   38       -0.632393
   39       -1.043683
   40       -0.012088
   42        0.010677
   43        0.002141
   45       -0.038830
   46        0.920798
   47        0.083647
   49        0.068982
   50       -0.058978
   52       -0.632393
   53        1.043683
   54        0.012088
   56        0.010677
   57       -0.002141
Sym= A
Ene=    1.5258
Spin= Alpha
Occup=  0.0000
    6        0.510883
    9        0.980439
   12        0.695428
   16       -0.000440
   21        0.063671
   26       -0.006757
   30        0.003452
   31       -0.573759
   32       -1.134807
   33       -0.538001
   35       -0.071771
   36        0.057122
   38        1.459724
   39       -1.073749
   40        0.008059
   42        0.085412
   43        0.053295
   45        0.573759
   46        1.134807
   47        0.538001
   49       -0.071771
   50       -0.057122
   52        1.459724
   53        1.073749
   54       -0.008059
   56        0.085412
   57       -0.053295
Sym= A
Ene=    1.5647
Spin= Alpha
Occup=  0.0000
    1        0.329955
    2        1.579549
    3       -0.013943
    4        1.308050
    7       -0.469589
   10       -0.383037
   13       -0.120259
   14        0.002201
   17        0.010087
   19        0.007376
   22        0.258950
   24       -0.025641
   27       -0.053794
   31       -0.462210
   32       -0.671585
   33       -0.102783
   35       -0.131556
   36        0.100876
   38        1.049681
   39       -0.812783
   40       -0.001678
   42       -0.038435
   43       -0.008266
   45       -0.462210
   46       -0.671585
   47       -0.102783
   49        0.131556
   50        0.100876
   52       -1.049681
   53       -0.812783
   54       -0.001678
   56        0.038435
   57       -0.008266
Sym= A
Ene=    2.0367
Spin= Alpha
Occup=  0.0000
    5       -0.016945
    8        0.058633
   11        0.715185
   15        0.014611
   20       -1.169695
   25        0.013691
   29       -0.002749
   34        0.040173
   37       -0.674679
   41       -0.072798
   44       -0.022996
   48        0.040173
   51       -0.674679
   55       -0.072798
   58        0.022996
Sym= A
Ene=    2.0540
Spin= Alpha
Occup=  0.0000
    6       -0.049385
    9       -1.848616
   12       -2.779730
   16        0.014216
   21        1.735712
   26       -0.116210
   30        0.087348
   31       -1.737975
   32        5.423225
   33        0.919605
   35       -0.162761
   36        0.168453
   38       -1.775150
   39        1.270019
   40       -0.007206
   42       -0.265948
   43       -0.154927
   45        1.737975
   46       -5.423225
   47       -0.919605
   49       -0.162761
   50       -0.168453
   52       -1.775150
   53       -1.270019
   54        0.007206
   56       -0.265948
   57        0.154927
Sym= A
Ene=    2.0655
Spin= Alpha
Occup=  0.0000
   18        0.014952
   23       -1.240468
   28        0.021293
   34       -0.056487
   37        0.613325
   41       -0.012349
   44       -0.058656
   48        0.056487
   51       -0.613325
   55        0.012349
   58       -0.058656
Sym= A
Ene=    2.1711
Spin= Alpha
Occup=  0.0000
    1       -0.195051
    2       -0.773414
    3        0.072605
    4       -2.237787
    7        0.141320
   10        0.359306
   13        0.266152
   14       -0.009007
   17       -0.002829
   19        1.019382
   22        0.917169
   24       -0.045227
   27       -0.061212
   31       -1.053953
   32        2.321009
   33        0.417268
   35       -0.102384
   36       -0.043368
   38       -0.274980
   39        1.023253
   40        0.051451
   42       -0.058265
   43       -0.010709
   45       -1.053953
   46        2.321009
   47        0.417268
   49        0.102384
   50       -0.043368
   52        0.274980
   53        1.023253
   54        0.051451
   56        0.058265
   57       -0.010709
Sym= A
Ene=    2.2344
Spin= Alpha
Occup=  0.0000
    1       -0.143462
    2       -0.534286
    3        0.123404
    4       -6.668118
    7        0.307506
   10        0.790136
   13        2.634403
   14        0.001849
   17       -0.002447
   19       -0.889446
   22        1.148655
   24       -0.024910
   27       -0.081404
   31       -0.963968
   32        4.738150
   33        0.520366
   35       -0.057655
   36        0.060094
   38       -1.558531
   39        0.733741
   40       -0.014134
   42       -0.117399
   43       -0.065905
   45       -0.963968
   46        4.738150
   47        0.520366
   49        0.057655
   50        0.060094
   52        1.558531
   53        0.733741
   54       -0.014134
   56        0.117399
   57       -0.065905
Sym= A
Ene=    2.5892
Spin= Alpha
Occup=  0.0000
    1        0.214283
    2        0.685564
    3       -0.104749
    4        0.060640
    7        0.541491
   10       -0.584488
   13       -0.464554
   14       -0.004205
   17       -0.022354
   19        0.242949
   22        0.438820
   24        0.050656
   27        0.114685
   31        3.910441
   32       -3.274080
   33       -1.146788
   35        0.108068
   36       -0.094068
   38        0.186949
   39        0.049295
   40       -0.036599
   42       -0.081942
   43        0.149788
   45        3.910441
   46       -3.274080
   47       -1.146788
   49       -0.108068
   50       -0.094068
   52       -0.186949
   53        0.049295
   54       -0.036599
   56        0.081942
   57        0.149788
Sym= A
Ene=    2.9631
Spin= Alpha
Occup=  0.0000
    6       -0.828726
    9        0.841493
   12       -0.257987
   16       -0.001173
   21        0.684035
   26        0.084578
   30       -0.100487
   31        3.593734
   32       -2.436989
   33       -0.801948
   35        0.159983
   36       -0.092331
   38       -0.068547
   39        0.002226
   40        0.127985
   42        0.125370
   43       -0.128627
   45       -3.593734
   46        2.436989
   47        0.801948
   49        0.159983
   50        0.092331
   52       -0.068547
   53       -0.002226
   54       -0.127985
   56        0.125370
   57        0.128627
Sym= A
Ene=    3.3553
Spin= Alpha
Occup=  0.0000
    5        0.232843
    8       -0.169840
   11       -0.217507
   15        0.020029
   20        0.348981
   25        0.089155
   29        0.081778
   34       -0.204673
   37        0.215906
   41       -0.526715
   44       -0.373036
   48       -0.204673
   51        0.215906
   55       -0.526715
   58        0.373036
Sym= A
Ene=    3.4903
Spin= Alpha
Occup=  0.0000
    1       -0.016632
    2       -0.070717
    3        0.022573
    4       -0.921791
    7       -0.177668
   10        0.098389
   13        0.371529
   14       -0.034848
   17       -0.028456
   19        0.425345
   22       -0.093256
   24        0.037094
   27       -0.088453
   31       -1.304148
   32        1.473883
   33        0.448915
   35       -0.081011
   36        0.077372
   38       -0.122606
   39        0.173191
   40       -0.120037
   42       -0.320297
   43        0.606138
   45       -1.304148
   46        1.473883
   47        0.448915
   49        0.081011
   50        0.077372
   52        0.122606
   53        0.173191
   54       -0.120037
   56        0.320297
   57        0.606138
Sym= A
Ene=    3.5817
Spin= Alpha
Occup=  0.0000
   18       -0.047958
   23       -0.092440
   28        0.113520
   34       -0.458100
   37        0.289048
   41        0.435333
   44        0.388215
   48        0.458100
   51       -0.289048
   55       -0.435333
   58        0.388215
Sym= A
Ene=    3.6551
Spin= Alpha
Occup=  0.0000
    6       -0.003771
    9       -0.096948
   12       -0.091211
   16        0.061063
   21        0.350264
   26       -0.023023
   30        0.036357
   31        1.367941
   32       -0.725104
   33       -0.304136
   35        0.270215
   36       -0.024461
   38       -0.350968
   39        0.076046
   40       -0.493235
   42       -0.431479
   43        0.159874
   45       -1.367941
   46        0.725104
   47        0.304136
   49        0.270215
   50        0.024461
   52       -0.350968
   53       -0.076046
   54        0.493235
   56       -0.431479
   57       -0.159874
Sym= A
Ene=    3.7997
Spin= Alpha
Occup=  0.0000
    5        2.046412
    8       -1.702579
   11       -0.481777
   15        0.041512
   20       -0.319393
   25       -0.080721
   29        0.050814
   34       -0.575474
   37        0.271985
   41        0.048166
   44        0.251805
   48       -0.575474
   51        0.271985
   55        0.048166
   58       -0.251805
Sym= A
Ene=    3.8777
Spin= Alpha
Occup=  0.0000
    6       -0.225357
    9        0.228559
   12        0.906402
   16        0.021133
   21       -0.421226
   26       -0.158819
   30       -0.065751
   31       -0.292699
   32       -0.448270
   33        0.067511
   35        0.545059
   36        0.599644
   38       -0.273307
   39       -0.619742
   40        0.188903
   42       -0.036482
   43        0.025179
   45        0.292699
   46        0.448270
   47       -0.067511
   49        0.545059
   50       -0.599644
   52       -0.273307
   53        0.619742
   54       -0.188903
   56       -0.036482
   57       -0.025179
Sym= A
Ene=    3.8848
Spin= Alpha
Occup=  0.0000
    1        0.100333
    2        0.391458
    3        0.016962
    4       -0.011474
    7        0.021007
   10        0.129404
   13        0.338114
   14        0.013530
   17       -0.004494
   19       -0.331997
   22       -0.214367
   24        0.172939
   27        0.042993
   31       -0.131953
   32        0.026279
   33       -0.005226
   35        0.343188
   36        0.582989
   38       -0.209215
   39       -0.635252
   40       -0.512403
   42        0.198471
   43       -0.103909
   45       -0.131953
   46        0.026279
   47       -0.005226
   49       -0.343188
   50        0.582989
   52        0.209215
   53       -0.635252
   54       -0.512403
   56       -0.198471
   57       -0.103909
Sym= A
Ene=    3.9613
Spin= Alpha
Occup=  0.0000
   18        0.016205
   23       -0.110745
   28       -0.179730
   34        0.708398
   37       -0.495320
   41        0.186770
   44        0.442283
   48       -0.708398
   51        0.495320
   55       -0.186770
   58        0.442283
Sym= A
Ene=    4.0190
Spin= Alpha
Occup=  0.0000
    5       -1.325989
    8        0.799485
   11       -0.286509
   15       -0.004716
   20        0.406811
   25       -0.072360
   29        0.132593
   34       -0.565641
   37        0.721117
   41        0.412769
   44       -0.449942
   48       -0.565641
   51        0.721117
   55        0.412769
   58        0.449942
Sym= A
Ene=    4.0757
Spin= Alpha
Occup=  0.0000
    6       -1.599409
    9        2.427718
   12        1.204642
   16       -0.167223
   21        0.193237
   26        0.026967
   30       -0.048129
   31        1.009219
   32       -2.135204
   33       -0.720631
   35       -0.354577
   36        0.450041
   38        1.125318
   39       -1.091236
   40       -0.343524
   42        0.399845
   43        0.316358
   45       -1.009219
   46        2.135204
   47        0.720631
   49       -0.354577
   50       -0.450041
   52        1.125318
   53        1.091236
   54        0.343524
   56        0.399845
   57       -0.316358
Sym= A
Ene=    4.1914
Spin= Alpha
Occup=  0.0000
    1       -0.304761
    2       -1.103334
    3       -0.056681
    4       -3.211163
    7       -1.925246
   10        2.398211
   13        1.323207
   14       -0.032993
   17        0.126586
   19        0.152173
   22        0.199363
   24        0.037011
   27       -0.079037
   31       -0.417218
   32        2.194721
   33        0.441701
   35        0.557164
   36       -0.181691
   38       -1.292526
   39        0.922912
   40        0.055226
   42       -0.446959
   43       -0.164766
   45       -0.417218
   46        2.194721
   47        0.441701
   49       -0.557164
   50       -0.181691
   52        1.292526
   53        0.922912
   54        0.055226
   56        0.446959
   57       -0.164766
Sym= A
Ene=    4.3117
Spin= Alpha
Occup=  0.0000
   18       -0.106064
   23        1.070982
   28        0.058224
   34       -0.064214
   37       -0.491105
   41       -0.719190
   44        0.587660
   48        0.064214
   51        0.491105
   55        0.719190
   58        0.587660
Sym= A
Ene=    4.3860
Spin= Alpha
Occup=  0.0000
    1        0.212578
    2        0.444306
    3       -0.124023
    4       -1.659957
    7       -1.428267
   10        1.183771
   13        0.548061
   14       -0.082073
   17       -0.077030
   19        0.740340
   22        1.011838
   24        0.062111
   27        0.132296
   31        0.731827
   32        0.387242
   33       -0.266451
   35       -0.137000
   36        0.501243
   38        0.078076
   39        0.278784
   40        0.620020
   42        0.145582
   43        0.247996
   45        0.731827
   46        0.387242
   47       -0.266451
   49        0.137000
   50        0.501243
   52       -0.078076
   53        0.278784
   54        0.620020
   56       -0.145582
   57        0.247996
Sym= A
Ene=    4.5828
Spin= Alpha
Occup=  0.0000
    6        1.323835
    9       -1.075655
   12       -0.304296
   16        0.003757
   21        0.266229
   26       -0.035102
   30       -0.112689
   31       -0.442345
   32        0.881253
   33        0.224309
   35        0.280510
   36        0.219867
   38       -0.863360
   39       -0.249001
   40       -0.507165
   42        0.396242
   43       -0.485600
   45        0.442345
   46       -0.881253
   47       -0.224309
   49        0.280510
   50       -0.219867
   52       -0.863360
   53        0.249001
   54        0.507165
   56        0.396242
   57        0.485600
Sym= A
Ene=    4.6842
Spin= Alpha
Occup=  0.0000
    5        1.977499
    8       -2.430269
   11       -0.536865
   15       -0.083160
   20        0.642684
   25        0.179545
   29       -0.223670
   34        0.196562
   37        0.276372
   41        0.328197
   44       -0.581812
   48        0.196562
   51        0.276372
   55        0.328197
   58        0.581812
Sym= A
Ene=    4.8632
Spin= Alpha
Occup=  0.0000
    6        0.651334
    9        1.741112
   12        1.191805
   16        0.218551
   21       -1.190649
   26        0.182201
   30       -0.215770
   31       -0.097933
   32       -3.028935
   33       -0.194010
   35        0.421149
   36       -0.364106
   38        1.566453
   39       -0.932153
   40        0.050758
   42        0.744801
   43        0.842426
   45        0.097933
   46        3.028935
   47        0.194010
   49        0.421149
   50        0.364106
   52        1.566453
   53        0.932153
   54       -0.050758
   56        0.744801
   57       -0.842426
Sym= A
Ene=    5.1551
Spin= Alpha
Occup=  0.0000
    1        0.311582
    2        1.967741
    3        0.400397
    4        2.448853
    7       -0.984738
   10       -0.329286
   13       -0.508969
   14        0.036208
   17        0.166985
   19       -0.343844
   22       -0.890093
   24       -0.074752
   27        0.426243
   31       -0.235397
   32       -2.119391
   33       -0.010014
   35        0.263280
   36       -0.499078
   38        0.839444
   39       -0.778028
   40       -0.320465