

     ************************************************************************
     *************** Dalton - An Electronic Structure Program ***************
     ************************************************************************

    This is output from DALTON release Dalton2022.0-dev (2022)
         ( Web site: http://daltonprogram.org )

   ----------------------------------------------------------------------------

    NOTE:
     
    Dalton is an experimental code for the evaluation of molecular
    properties using (MC)SCF, DFT, CI, and CC wave functions.
    The authors accept no responsibility for the performance of
    the code or for the correctness of the results.
     
    The code (in whole or part) is provided under a licence and
    is not to be reproduced for further distribution without
    the written permission of the authors or their representatives.
     
    See the home page "http://daltonprogram.org" for further information.
     
    If results obtained with this code are published,
    the appropriate citations would be both of:
     
       K. Aidas, C. Angeli, K. L. Bak, V. Bakken,
       R. Bast, L. Boman, O. Christiansen, R. Cimiraglia,
       S. Coriani, P. Dahle, E. K. Dalskov, U. Ekstroem,
       T. Enevoldsen, J. J. Eriksen, P. Ettenhuber, B. Fernandez,
       L. Ferrighi, H. Fliegl, L. Frediani, K. Hald, A. Halkier,
       C. Haettig, H. Heiberg, T. Helgaker, A. C. Hennum,
       H. Hettema, E. Hjertenaes, S. Hoest, I.-M. Hoeyvik,
       M. F. Iozzi, B. Jansik, H. J. Aa. Jensen, D. Jonsson,
       P. Joergensen, J. Kauczor, S. Kirpekar,
       T. Kjaergaard, W. Klopper, S. Knecht, R. Kobayashi, H. Koch,
       J. Kongsted, A. Krapp, K. Kristensen, A. Ligabue,
       O. B. Lutnaes, J. I. Melo, K. V. Mikkelsen, R. H. Myhre,
       C. Neiss, C. B. Nielsen, P. Norman, J. Olsen,
       J. M. H. Olsen, A. Osted, M. J. Packer, F. Pawlowski,
       T. B. Pedersen, P. F. Provasi, S. Reine, Z. Rinkevicius,
       T. A. Ruden, K. Ruud, V. Rybkin, P. Salek, C. C. M. Samson,
       A. Sanchez de Meras, T. Saue, S. P. A. Sauer,
       B. Schimmelpfennig, K. Sneskov, A. H. Steindal,
       K. O. Sylvester-Hvid, P. R. Taylor, A. M. Teale,
       E. I. Tellgren, D. P. Tew, A. J. Thorvaldsen, L. Thoegersen,
       O. Vahtras, M. A. Watson, D. J. D. Wilson, M. Ziolkowski
       and H. Agren,
       "The Dalton quantum chemistry program system",
       WIREs Comput. Mol. Sci. 2014, 4:269-284 (doi: 10.1002/wcms.1172)
     
    and
     
       Dalton, a molecular electronic structure program,
       Release Dalton2022.0-dev (2022), see http://daltonprogram.org
   ----------------------------------------------------------------------------

    Authors in alphabetical order (Major contribution(s) in parenthesis):

  Kestutis Aidas,              Vilnius University,        Lithuania   (QM/MM)
  Celestino Angeli,            University of Ferrara,     Italy       (NEVPT2)
  Juan J. Aucar,               Northeast National UniversiArgentina   (LRESC, Relativistic Effects on EFG)
  Keld L. Bak,                 UNI-C,                     Denmark     (AOSOPPA, non-adiabatic coupling, magnetic properties)
  Vebjoern Bakken,             University of Oslo,        Norway      (DALTON; geometry optimizer, symmetry detection)
  Radovan Bast,                UiT The Arctic U. of NorwayNorway      (DALTON installation and execution frameworks)
  Pablo Baudin,                University of Valencia,    Spain       (Cholesky excitation energies)
  Linus Boman,                 NTNU,                      Norway      (Cholesky decomposition and subsystems)
  Bruno N. Cabral Tenorio,     Technical Univ. of Denmark,Denmark     (Lanczos-based CC methods)
  Ove Christiansen,            Aarhus University,         Denmark     (CC module)
  Renzo Cimiraglia,            University of Ferrara,     Italy       (NEVPT2)
  Sonia Coriani,               Technical Univ. of Denmark,Denmark     (CC and RESPONS modules)
  Janusz Cukras,               University of Warsaw,      Poland      (MChD in RESPONS)
  Paal Dahle,                  University of Oslo,        Norway      (Parallelization)
  Erik K. Dalskov,             UNI-C,                     Denmark     (SOPPA)
  Thomas Enevoldsen,           Univ. of Southern Denmark, Denmark     (SOPPA)
  Janus J. Eriksen,            Aarhus University,         Denmark     (Polarizable embedding, TDA)
  Rasmus Faber,                Technical Univ. of Denmark,Denmark     (Vib.avg. NMR w. SOPPA, parallel AO-SOPPA, CVS-CC and EOMCC)
  Tobias Fahleson,             KTH Stockholm,             Sweden      (Damped cubic response)
  Berta Fernandez,             U. of Santiago de CompostelSpain       (Doublet spin, ESR in RESPONS)
  Lara Ferrighi,               Aarhus University,         Denmark     (PCM Cubic response)
  Heike Fliegl,                University of Oslo,        Norway      (CCSD(R12))
  Luca Frediani,               UiT The Arctic U. of NorwayNorway      (PCM)
  Emmanuel Fromager,           Univ. Strasbourg,          France      (MC-srDFT)
  Bin Gao,                     UiT The Arctic U. of NorwayNorway      (Gen1Int library)
  Andre S. P. Gomes,           CNRS/Universite de Lille,  France      (Frozen density embedding)
  Christof Haettig,            Ruhr-University Bochum,    Germany     (CC module)
  Kasper Hald,                 Aarhus University,         Denmark     (CC module)
  Asger Halkier,               Aarhus University,         Denmark     (CC module)
  Frederik Beyer Hansen,       University of Copenhagen,  Denmark     (Parallel AO-SOPPA)
  Erik D. Hedegaard,           Univ. of Southern Denmark, Denmark     (Polarizable embedding, QM/MM, and MC-srDFT)
  Hanne Heiberg,               University of Oslo,        Norway      (Geometry analysis, selected one-electron integrals)
  Trygve Helgaker,             University of Oslo,        Norway      (DALTON; ABACUS, ERI, DFT modules, London, and much more)
  Alf Christian Hennum,        University of Oslo,        Norway      (Parity violation)
  Hinne Hettema,               University of Auckland,    New Zealand (Quadratic response in RESPONS; SIRIUS supersymmetry)
  Andreas E. Hillers-Bendtsen, University of Copenhagen,  Denmark     (MP3)
  Eirik Hjertenaes,            NTNU,                      Norway      (Cholesky decomposition)
  Nicolai Machholdt Hoeyer,    Aarhus University,         Denmark     (MP3)
  Pi A. B. Haase,              University of Copenhagen,  Denmark     (Triplet AO-SOPPA)
  Maria Francesca Iozzi,       University of Oslo,        Norway      (RPA)
  Christoph Jacob,             TU Braunschweig            Germany     (Frozen density embedding)
  Brano Jansik,                Technical Univ. of Ostrava Czech Rep.  (DFT cubic response)
  Hans Joergen Aa. Jensen,     Univ. of Southern Denmark, Denmark     (DALTON; SIRIUS, RESPONS, ABACUS, MC-srDFT, and much more)
  Dan Jonsson,                 UiT The Arctic U. of NorwayNorway      (Cubic response in RESPONS module)
  Poul Joergensen,             Aarhus University,         Denmark     (RESPONS, ABACUS, and CC modules)
  Maciej Kaminski,             University of Warsaw,      Poland      (CPPh in RESPONS)
  Joanna Kauczor,              Linkoeping University,     Sweden      (Complex polarization propagator (CPP) module)
  Sheela Kirpekar,             Univ. of Southern Denmark, Denmark     (Mass-velocity & Darwin integrals)
  Frederik Oersted Kjeldal,    Technical Univ. of Denmark,Denmark     (MP3)
  Erik Kjellgren,              Univ. of Southern Denmark, Denmark     (MC-srDFT)
  Wim Klopper,                 KIT Karlsruhe,             Germany     (R12 code in CC, SIRIUS, and ABACUS modules)
  Stefan Knecht,               ETH Zurich,                Switzerland (Parallel CI and MCSCF, MC-srDFT)
  Rika Kobayashi,              Australian National Univ., Australia   (DIIS in CC, London in MCSCF)
  Henrik Koch,                 NTNU,                      Norway      (CC module, Cholesky decomposition)
  Jacob Kongsted,              Univ. of Southern Denmark, Denmark     (Polarizable embedding, polarizable density embedding, QM/MM)
  Andrea Ligabue,              University of Modena,      Italy       (CTOCD, AOSOPPA)
  Nanna H. List,               Univ. of Southern Denmark, Denmark     (Polarizable embedding)
  Ola B. Lutnaes,              University of Oslo,        Norway      (DFT Hessian)
  Juan I. Melo,                University of Buenos Aires,Argentina   (LRESC, Relativistic Effects on NMR Shieldings)
  Kurt V. Mikkelsen,           University of Copenhagen,  Denmark     (MC-SCRF, QM/MM, and MP3)
  Rolf H. Myhre,               NTNU,                      Norway      (Subsystems and CC3)
  Christian Neiss,             Univ. Erlangen-Nuernberg,  Germany     (CCSD(R12))
  Christian B. Nielsen,        University of Copenhagen,  Denmark     (QM/MM)
  Patrick Norman,              KTH Stockholm,             Sweden      (Cubic response and complex frequency response in RESPONS)
  Jeppe Olsen,                 Aarhus University,         Denmark     (SIRIUS CI/density modules)
  Jogvan Magnus H. Olsen,      Aarhus University,         Denmark     (Polarizable embedding and polarizable density embedding)
  Anders Osted,                Copenhagen University,     Denmark     (QM/MM)
  Martin J. Packer,            University of Sheffield,   UK          (SOPPA)
  Filip Pawlowski,             Kazimierz Wielki UniversityPoland      (CC3)
  Morten N. Pedersen,          Univ. of Southern Denmark, Denmark     (Polarizable embedding)
  Thomas B. Pedersen,          University of Oslo,        Norway      (Cholesky decomposition)
  Patricio F. Provasi,         University of Northeastern,Argentina   (Analysis of coupling constants in localized orbitals)
  Peter Reinholdt,             Univ. of Southern Denmark, Denmark     (Polarizable embedding and polarizable density embedding)
  Zilvinas Rinkevicius,        KTH Stockholm,             Sweden      (open-shell DFT, ESR)
  Elias Rudberg,               KTH Stockholm,             Sweden      (DFT grid and basis info)
  Torgeir A. Ruden,            University of Oslo,        Norway      (Numerical derivatives in ABACUS)
  Kenneth Ruud,                UiT The Arctic U. of NorwayNorway      (DALTON; ABACUS magnetic properties and much more)
  Pawel Salek,                 KTH Stockholm,             Sweden      (DALTON; DFT code)
  Claire C. M. Samson,         University of Karlsruhe    Germany     (Boys localization, r12 integrals in ERI)
  Alfredo Sanchez de Meras,    University of Valencia,    Spain       (CC module, Cholesky decomposition)
  Trond Saue,                  Paul Sabatier University,  France      (direct Fock matrix construction)
  Stephan P. A. Sauer,         University of Copenhagen,  Denmark     (SOPPA(CCSD), SOPPA prop., AOSOPPA, vibrational g-factors)
  Bernd Schimmelpfennig,       Forschungszentrum KarlsruheGermany     (AMFI module)
  Anna K. Schnack-Petersen,    University of Copenhagen,  Denmark     (RPA(D) and HRPA(D) properties in AOSOPPA)
  Kristian Sneskov,            Aarhus University,         Denmark     (Polarizable embedding, QM/MM)
  Arnfinn H. Steindal,         UiT The Arctic U. of NorwayNorway      (parallel QM/MM, polarizable embedding)
  Casper Steinmann,            Aalborg University,        Denmark     (QFIT, polarizable embedding)
  K. O. Sylvester-Hvid,        University of Copenhagen,  Denmark     (MC-SCRF)
  Peter R. Taylor,             VLSCI/Univ. of Melbourne,  Australia   (Symmetry handling ABACUS, integral transformation)
  Andrew M. Teale,             University of Nottingham,  England     (DFT-AC, DFT-D)
  David P. Tew,                University of Bristol,     England     (CCSD(R12))
  Julien Toulouse,             Sorbonne Univ.,            France      (MC-srDFT)
  Olav Vahtras,                KTH Stockholm,             Sweden      (Triplet response, spin-orbit, ESR, TDDFT, open-shell DFT)
  Lucas Visscher,              Vrije Universiteit AmsterdaNetherlands (Frozen density embedding)
  David J. Wilson,             La Trobe University,       Australia   (DFT Hessian and DFT magnetizabilities)
  Luna Zamok,                  University of Copenhagen,  Denmark     (Block Lanczos RPA solver in SOPPA module)
  Hans Agren,                  KTH Stockholm,             Sweden      (SIRIUS module, RESPONS, MC-SCRF solvation)
 --------------------------------------------------------------------------------

     Date and time (Linux)  : Sat Apr 13 13:29:02 2024
     Host name              : node103                                 

 * Work memory size             :    64000000 =  488.28 megabytes.

 * Directories for basis set searches:
   1) /home1/s4925076/dalton-files/Sample_inputs_dalton2024_updated/ex4/ex4g/cc-pVTZ
   2) /home3/hb-qchav/Dalton/basis


Compilation information
-----------------------

 Who compiled             | p256146
 Host                     | login1
 System                   | Linux-4.18.0-425.13.1.el8_7.x86_64
 CMake generator          | Unix Makefiles
 Processor                | x86_64
 64-bit integers          | OFF
 MPI                      | ON
 Fortran compiler         | /cvmfs/hpc.rug.nl/versions/2023.01/rocky8/x86_64/a
                          | md/zen3/software/impi/2021.7.1-intel-compilers-202
                          | 2.2.1/mpi/2021.7.1/bin/mpiifort
 Fortran compiler version | unknown
 C compiler               | /cvmfs/hpc.rug.nl/versions/2023.01/rocky8/x86_64/a
                          | md/zen3/software/impi/2021.7.1-intel-compilers-202
                          | 2.2.1/mpi/2021.7.1/bin/mpiicc
 C compiler version       | unknown
 C++ compiler             | /cvmfs/hpc.rug.nl/versions/2023.01/rocky8/x86_64/a
                          | md/zen3/software/impi/2021.7.1-intel-compilers-202
                          | 2.2.1/mpi/2021.7.1/bin/mpiicpc
 C++ compiler version     | unknown
 BLAS                     | /cvmfs/hpc.rug.nl/versions/2023.01/rocky8/x86_64/a
                          | md/zen3/software/imkl/2022.2.1/mkl/2022.2.1/lib/in
                          | tel64/libmkl_intel_lp64.so;/cvmfs/hpc.rug.nl/versi
                          | ons/2023.01/rocky8/x86_64/amd/zen3/software/imkl/2
                          | 022.2.1/mkl/2022.2.1/lib/intel64/libmkl_sequential
                          | .so;/cvmfs/hpc.rug.nl/versions/2023.01/rocky8/x86_
                          | 64/amd/zen3/software/imkl/2022.2.1/mkl/2022.2.1/li
                          | b/intel64/libmkl_core.so;/usr/lib64/libpthread.so;
                          | /usr/lib64/libm.so
 LAPACK                   | /cvmfs/hpc.rug.nl/versions/2023.01/rocky8/x86_64/a
                          | md/zen3/software/imkl/2022.2.1/mkl/2022.2.1/lib/in
                          | tel64/libmkl_lapack95_lp64.a;/cvmfs/hpc.rug.nl/ver
                          | sions/2023.01/rocky8/x86_64/amd/zen3/software/imkl
                          | /2022.2.1/mkl/2022.2.1/lib/intel64/libmkl_intel_lp
                          | 64.so
 Static linking           | OFF
 Last Git revision        | 4d6ac05be54d7f9c5fe49e0ac32a42491a6c6955
 Git branch               | master
 Configuration time       | 2023-04-05 13:35:07.780405

 * Sequential calculation.


   Content of the .dal input file
 ----------------------------------

**DALTON INPUT
.RUN WAVEFUNCTION
**WAVE FUNCTIONS
.CC
*CC INPUT
.CC(T)
.FREEZE
 1 7
**END OF DALTON INPUT


   Content of the .mol file
 ----------------------------

BASIS
cc-pVTZ
Calculation of excitation energies through ABACUS

Atomtypes=2 Multiplicity=1 Charge=0 Nosymmetry
Charge=8.0 Atoms=1
O   0.00000             0.00000              0.1241444240
Charge=1.0 Atoms=2
H   0.00000             1.43153              -0.985265576
H   0.00000            -1.43153              -0.985265576


       *******************************************************************
       *********** Output from DALTON general input processing ***********
       *******************************************************************

 --------------------------------------------------------------------------------
   Overall default print level:    0
   Print level for DALTON.STAT:    1

    HERMIT 1- and 2-electron integral sections will be executed
    "Old" integral transformation used (limited to max 255 basis functions)
    Wave function sections will be executed (SIRIUS module)
 --------------------------------------------------------------------------------


   ****************************************************************************
   *************** Output of molecule and basis set information ***************
   ****************************************************************************


    The two title cards from your ".mol" input:
    --------------------------------------------------------------------------------
 1: Calculation of excitation energies through ABACUS
 2: 
    --------------------------------------------------------------------------------

  Atomic type no.    1
  --------------------
  Nuclear charge:   8.00000
  Number of symmetry independent centers:    1
  Number of basis sets to read;    2
  Basis set file used for this atomic type with Z =   8 :
     "/home3/hb-qchav/Dalton/basis/cc-pVTZ"

  Atomic type no.    2
  --------------------
  Nuclear charge:   1.00000
  Number of symmetry independent centers:    2
  Number of basis sets to read;    2
  Basis set file used for this atomic type with Z =   1 :
     "/home3/hb-qchav/Dalton/basis/cc-pVTZ"


                         SYMGRP: Point group information
                         -------------------------------

@    Point group: C1 


                                 Isotopic Masses
                                 ---------------

                           O          15.994915
                           H           1.007825
                           H           1.007825

                       Total mass:    18.010565 amu
                       Natural abundance:  99.730 %

 Center-of-mass coordinates (a.u.):    0.000000    0.000000   -0.000015
 Center-of-mass coordinates (Angs):    0.000000    0.000000   -0.000008


  Atoms and basis sets
  --------------------

  Number of atom types :    2
  Total number of atoms:    3

  Basis set used is "cc-pVTZ" from the basis set library.

  label    atoms   charge   prim   cont     basis
  ----------------------------------------------------------------------
  O           1    8.0000    42    30      [10s5p2d1f|4s3p2d1f]                               
  H           2    1.0000    16    14      [5s2p1d|3s2p1d]                                    
  ----------------------------------------------------------------------
  total:      3   10.0000    74    58
  ----------------------------------------------------------------------
  Spherical harmonic basis used.

  Threshold for neglecting AO integrals:  1.00D-12


  Cartesian Coordinates (a.u.)
  ----------------------------

  Total number of coordinates:    9
  O       :     1  x   0.0000000000    2  y   0.0000000000    3  z   0.1241444240
  H       :     4  x   0.0000000000    5  y   1.4315300000    6  z  -0.9852655760
  H       :     7  x   0.0000000000    8  y  -1.4315300000    9  z  -0.9852655760


   Interatomic separations (in Angstrom):
   --------------------------------------

            O           H           H     
            ------      ------      ------
 O     :    0.000000
 H     :    0.958391    0.000000
 H     :    0.958391    1.515066    0.000000


  Max    interatomic separation is    1.5151 Angstrom (    2.8631 Bohr)
  between atoms    3 and    2, "H     " and "H     ".

  Min HX interatomic separation is    0.9584 Angstrom (    1.8111 Bohr)


  Bond distances (Angstrom):
  --------------------------

                  atom 1     atom 2       distance
                  ------     ------       --------
  bond distance:  H          O            0.958391
  bond distance:  H          O            0.958391


  Bond angles (degrees):
  ----------------------

                  atom 1     atom 2     atom 3         angle
                  ------     ------     ------         -----
  bond angle:     H          O          H            104.450




 Principal moments of inertia (u*A**2) and principal axes
 --------------------------------------------------------

   IA       0.616959          0.000000    1.000000    0.000000
   IB       1.156694          0.000000    0.000000    1.000000
   IC       1.773652          1.000000    0.000000    0.000000


 Rotational constants
 --------------------

@    The molecule is planar.

               A                   B                   C

         819145.5126         436916.9575         284936.9149 MHz
           27.323753           14.573981            9.504472 cm-1


@  Nuclear repulsion energy :    9.183706230245 Hartree


                     .---------------------------------------.
                     | Starting in Integral Section (HERMIT) |
                     `---------------------------------------'



 ***************************************************************************************
 ****************** Output from **INTEGRALS input processing (HERMIT) ******************
 ***************************************************************************************


 - Using defaults, no **INTEGRALS input found

 Default print level:        1

 Calculation of one- and two-electron Hamiltonian integrals.

 Center of mass  (bohr):      0.000000000000      0.000000000000     -0.000015049426
 Operator center (bohr):      0.000000000000      0.000000000000      0.000000000000
 Gauge origin    (bohr):      0.000000000000      0.000000000000      0.000000000000
 Dipole origin   (bohr):      0.000000000000      0.000000000000      0.000000000000

Calculation of 2-electron integrals are postponed until they are needed.


     ************************************************************************
     ************************** Output from HERINT **************************
     ************************************************************************



                      Nuclear contribution to dipole moments
                      --------------------------------------

                 au               Debye          C m (/(10**-30)

      x      0.00000000         0.00000000         0.00000000
      y      0.00000000         0.00000000         0.00000000
      z     -0.97737576        -2.48424123        -8.28653678


  Total CPU  time used in HERMIT:   0.01 seconds
  Total wall time used in HERMIT:   0.01 seconds


                        .----------------------------------.
                        | End of Integral Section (HERMIT) |
                        `----------------------------------'



                   .--------------------------------------------.
                   | Starting in Wave Function Section (SIRIUS) |
                   `--------------------------------------------'


 *** Output from Huckel module :

     Using EWMO model:          T
     Using EHT  model:          F
     Number of Huckel orbitals each symmetry:    7

 EWMO - Energy Weighted Maximum Overlap - is a Huckel type method,
        which normally is better than Extended Huckel Theory.
 Reference: Linderberg and Ohrn, Propagators in Quantum Chemistry (Wiley, 1973)

 Huckel EWMO eigenvalues for symmetry :  1
          -20.684949      -1.610949      -0.778093      -0.688539      -0.616200
           -0.232646      -0.168524

 **********************************************************************
 *SIRIUS* a direct, restricted step, second order MCSCF program       *
 **********************************************************************

 
     Date and time (Linux)  : Sat Apr 13 13:29:02 2024
     Host name              : node103                                 

 Title lines from ".mol" input file:
     Calculation of excitation energies through ABACUS
     

 Print level on unit LUPRI =   2 is   0
 Print level on unit LUW4  =   2 is   5

@    (Integral direct) CC calculation.

@    This is a combination run starting with
@              a restricted, closed shell Hartree-Fock calculation


 Initial molecular orbitals are obtained according to
 ".MOSTART EWMO  " input option

     Wave function specification
     ============================

     For the specification of the Coupled Cluster: see below.

@    Wave function type        --- CC ---
@    Number of closed shell electrons          10
@    Number of electrons in active shells       0
@    Total charge of the molecule               0

@    Spin multiplicity and 2 M_S                1         0
@    Total number of symmetries                 1 (point group: C1 )
@    Reference state symmetry                   1 (irrep name : A  )

     Orbital specifications
     ======================
@    Abelian symmetry species          All |    1
@                                          |  A  
                                       --- |  ---
@    Occupied SCF orbitals               5 |    5
@    Secondary orbitals                 53 |   53
@    Total number of orbitals           58 |   58
@    Number of basis functions          58 |   58

     Optimization information
     ========================
@    Number of configurations                 1
@    Number of orbital rotations            265
     ------------------------------------------
@    Total number of variables              266

     Maximum number of Fock   iterations      0
     Maximum number of DIIS   iterations     60
     Maximum number of QC-SCF iterations     60
     Threshold for SCF convergence     1.00D-06


 Changes of defaults for CC:
 ---------------------------


 -Implicit frozen core calculation
  


 ***********************************************
 ***** DIIS acceleration of SCF iterations *****
 ***********************************************

 C1-DIIS algorithm; max error vectors =    8

 Iter      Total energy        Error norm    Delta(E)  DIIS dim.
 -----------------------------------------------------------------------------

Calculating AOSUPINT

---> (Re)generating AOTWOINT


     ************************************************************************
     ************************** Output from HERINT **************************
     ************************************************************************


 Threshold for neglecting two-electron integrals:  1.00D-12
 HERMIT - Number of two-electron integrals written:      682461 ( 46.6% )
 HERMIT - Megabytes written:                              7.818

  Total CPU  time used in TWOINT:   0.07 seconds
  Total wall time used in TWOINT:   0.07 seconds
     (Precalculated AO two-electron integrals are transformed to P-supermatrix elements.
      Threshold for discarding integrals :  1.00D-12 )

@  1    -75.8709418467        1.86829D+00   -7.59D+01    1
      Virial theorem: -V/T =      1.994722
@    MULPOP   O      -0.85; H       0.43; H       0.43; 
   1  Level shift: doubly occupied orbital energies shifted by -2.00D-01
 -----------------------------------------------------------------------------
@  2    -76.0465807341        3.92720D-01   -1.76D-01    2
      Virial theorem: -V/T =      2.003572
@    MULPOP   O      -0.51; H       0.25; H       0.25; 
   2  Level shift: doubly occupied orbital energies shifted by -5.00D-02
 -----------------------------------------------------------------------------
@  3    -76.0559108398        1.09500D-01   -9.33D-03    3
      Virial theorem: -V/T =      1.999806
@    MULPOP   O      -0.48; H       0.24; H       0.24; 
   3  Level shift: doubly occupied orbital energies shifted by -2.50D-02
 -----------------------------------------------------------------------------
@  4    -76.0569384845        4.97839D-02   -1.03D-03    4
      Virial theorem: -V/T =      2.001574
@    MULPOP   O      -0.47; H       0.23; H       0.23; 
   4  Level shift: doubly occupied orbital energies shifted by -1.25D-02
 -----------------------------------------------------------------------------
@  5    -76.0570670263        9.65519D-03   -1.29D-04    5
      Virial theorem: -V/T =      2.000644
@    MULPOP   O      -0.48; H       0.24; H       0.24; 
 -----------------------------------------------------------------------------
@  6    -76.0570818439        2.25271D-03   -1.48D-05    6
      Virial theorem: -V/T =      2.000708
@    MULPOP   O      -0.48; H       0.24; H       0.24; 
 -----------------------------------------------------------------------------
@  7    -76.0570826671        3.26850D-04   -8.23D-07    7
      Virial theorem: -V/T =      2.000734
@    MULPOP   O      -0.48; H       0.24; H       0.24; 
 -----------------------------------------------------------------------------
@  8    -76.0570826840        5.15959D-05   -1.69D-08    8
      Virial theorem: -V/T =      2.000735
@    MULPOP   O      -0.48; H       0.24; H       0.24; 
 -----------------------------------------------------------------------------
@  9    -76.0570826843        1.04345D-05   -3.24D-10    8
      Virial theorem: -V/T =      2.000735
@    MULPOP   O      -0.48; H       0.24; H       0.24; 
 -----------------------------------------------------------------------------
@ 10    -76.0570826843        1.37323D-06   -1.34D-11    8
      Virial theorem: -V/T =      2.000735
@    MULPOP   O      -0.48; H       0.24; H       0.24; 
 -----------------------------------------------------------------------------
@ 11    -76.0570826843        2.14407D-07   -2.84D-13    8

@ *** DIIS converged in  11 iterations !
@     Converged SCF energy, gradient:    -76.057082684311    2.14D-07
    - total time used in SIRFCK :              0.00 seconds


 *** SCF orbital energy analysis ***

 Only the 20 lowest virtual orbital energies printed in each symmetry.

 Number of electrons        :   10
 Closed shell orbitals      :    5

 Sym       Hartree-Fock orbital energies

1 A     -20.55497155    -1.34511223    -0.70903342    -0.57762344    -0.50440151
          0.14213576     0.20395886     0.54363680     0.60182971     0.66838570
          0.78737787     0.80025006     0.80524701     0.86101031     0.95485673
          1.13264925     1.19662602     1.52580689     1.56468471     2.03674078
          2.05401874     2.06545282     2.17111312     2.23443377     2.58923963

    E(LUMO) :     0.14213576 au (symmetry 1)
  - E(HOMO) :    -0.50440151 au (symmetry 1)
  ------------------------------------------
    gap     :     0.64653727 au

 --- Writing SIRIFC interface file

--------------------------------------------------------------------------------


     .--------------------------------------------------.
     | HF-SCF KT IPs [a.u. & eV] from Koopmans' theorem |
     `--------------------------------------------------'


     HF-SCF KT symmetry 1 ( A  ) in point group C1  -- 5 principal poles with pole strength 1

   ============  ============  ============  ============  ============
      20.554972      1.345112      0.709033      0.577623      0.504402
     559.329228     36.602366     19.293781     15.717933     13.725463
   ============  ============  ============  ============  ============

@ Summary of HF-SCF KT ionization potentials [eV]:

@ Symmetry 1 (A  ) :   559.329      36.602      19.294      15.718      13.725

  === End of HF-SCF KT output ===
--------------------------------------------------------------------------------


 CPU and wall time for SCF :       0.155       0.197


                       .-----------------------------------.
                       | --- Final results from SIRIUS --- |
                       `-----------------------------------'


@    Spin multiplicity:           1
@    Spatial symmetry:            1 ( irrep  A   in C1  )
@    Total charge of molecule:    0

@    Final HF energy:             -76.057082684311                 
@    Nuclear repulsion:             9.183706230245
@    Electronic energy:           -85.240788914557

@    Final gradient norm:           0.000000214407

 
     Date and time (Linux)  : Sat Apr 13 13:29:02 2024
     Host name              : node103                                 

File label for MO orbitals:  13Apr24   FOCKDIIS

 (Only coefficients > 0.0100 are printed.)

 Molecular orbitals for symmetry species 1  (A  )
 ------------------------------------------------

    Orbital         1        2        3        4        5        6        7
   1 O   :1s    -0.9993   0.0088  -0.0000  -0.0022   0.0000   0.0306  -0.0000
   2 O   :1s     0.0010  -0.8649  -0.0000  -0.3070   0.0000  -0.1772   0.0000
   3 O   :1s    -0.0010   0.0066   0.0000  -0.0041   0.0000  -0.0114   0.0000
   4 O   :1s     0.0008   0.0436   0.0000  -0.1611  -0.0000  -1.4830   0.0000
   5 O   :2px    0.0000   0.0000  -0.0000   0.0000   0.9228   0.0000   0.0000
   6 O   :2py    0.0000   0.0000  -0.7302  -0.0000  -0.0000   0.0000  -0.3512
   7 O   :2pz    0.0049   0.1147   0.0000  -0.8086   0.0000   0.2047   0.0000
   9 O   :2py   -0.0000   0.0000   0.0186  -0.0000  -0.0000   0.0000  -0.0295
  10 O   :2pz   -0.0039   0.0074  -0.0000   0.0145  -0.0000   0.0933  -0.0000
  11 O   :2px    0.0000   0.0000  -0.0000   0.0000   0.0654   0.0000   0.0000
  12 O   :2py   -0.0000   0.0000   0.0863  -0.0000  -0.0000   0.0000  -0.7221
  13 O   :2pz   -0.0018  -0.0262  -0.0000  -0.0053   0.0000   0.3923  -0.0000
  15 O   :3d1-   0.0000  -0.0000   0.0131   0.0000  -0.0000  -0.0000  -0.0029
  20 O   :3d1-   0.0000  -0.0000   0.0225   0.0000   0.0000  -0.0000   0.0598
  21 O   :3d0    0.0002  -0.0029   0.0000   0.0182  -0.0000  -0.0089   0.0000
  22 O   :3d1+  -0.0000  -0.0000   0.0000  -0.0000  -0.0181  -0.0000  -0.0000
  23 O   :3d2+  -0.0005   0.0076  -0.0000  -0.0058   0.0000   0.0516  -0.0000
  31 H   :1s    -0.0021  -0.3749  -0.5963   0.3617  -0.0000   0.1147   0.0720
  32 H   :1s     0.0001   0.1160   0.0807  -0.0430   0.0000   0.2253   0.1009
  33 H   :1s     0.0011   0.1375   0.1671  -0.1125   0.0000   0.8769   1.7372
  34 H   :2px   -0.0000  -0.0000   0.0000  -0.0000   0.0101  -0.0000  -0.0000
  35 H   :2py    0.0002   0.0105   0.0095  -0.0095  -0.0000   0.0057   0.0119
  36 H   :2pz   -0.0001  -0.0074  -0.0128  -0.0007  -0.0000  -0.0015  -0.0108
  37 H   :2px   -0.0000  -0.0000   0.0000  -0.0000   0.0312  -0.0000  -0.0000
  38 H   :2py    0.0005   0.0098   0.0195  -0.0214  -0.0000  -0.1440  -0.1340
  39 H   :2pz   -0.0003  -0.0049  -0.0239  -0.0123   0.0000   0.1104   0.1083
  41 H   :3d1-  -0.0001   0.0020   0.0058  -0.0007  -0.0000  -0.0176  -0.0094
  45 H   :1s    -0.0021  -0.3749   0.5963   0.3617  -0.0000   0.1147  -0.0720
  46 H   :1s     0.0001   0.1160  -0.0807  -0.0430   0.0000   0.2253  -0.1009
  47 H   :1s     0.0011   0.1375  -0.1671  -0.1125   0.0000   0.8769  -1.7372
  48 H   :2px   -0.0000  -0.0000   0.0000  -0.0000   0.0101  -0.0000  -0.0000
  49 H   :2py   -0.0002  -0.0105   0.0095   0.0095  -0.0000  -0.0057   0.0119
  50 H   :2pz   -0.0001  -0.0074   0.0128  -0.0007  -0.0000  -0.0015   0.0108
  51 H   :2px   -0.0000  -0.0000   0.0000  -0.0000   0.0312  -0.0000  -0.0000
  52 H   :2py   -0.0005  -0.0098   0.0195   0.0214   0.0000   0.1440  -0.1340
  53 H   :2pz   -0.0003  -0.0049   0.0239  -0.0123   0.0000   0.1104  -0.1083
  55 H   :3d1-   0.0001  -0.0020   0.0058   0.0007   0.0000   0.0176  -0.0094

    Orbital         8        9       10       11       12       13       14
   1 O   :1s    -0.0000  -0.0245   0.0353   0.0000   0.0180  -0.0000  -0.0000
   2 O   :1s     0.0000  -0.3443   0.1261   0.0000   0.2103   0.0000   0.0000
   3 O   :1s     0.0000   0.0282  -0.0634   0.0000  -0.0136   0.0000   0.0000
   4 O   :1s     0.0000  -0.6341   4.5711  -0.0000   0.5478   0.0000   0.0000
   5 O   :2px    0.0000   0.0000   0.0000   0.6683   0.0000  -0.0000  -0.0000
   6 O   :2py   -0.2733  -0.0000  -0.0000  -0.0000   0.0000   0.7157  -0.0000
   7 O   :2pz    0.0000   0.2396   0.6386   0.0000  -0.1409   0.0000   0.0000
   8 O   :2px   -0.0000  -0.0000  -0.0000   0.4447  -0.0000   0.0000   0.0000
   9 O   :2py   -0.1458  -0.0000   0.0000  -0.0000   0.0000  -0.3735   0.0000
  10 O   :2pz   -0.0000   0.0407  -0.2068  -0.0000  -0.0800  -0.0000  -0.0000
  11 O   :2px    0.0000   0.0000   0.0000  -1.3982   0.0000  -0.0000  -0.0000
  12 O   :2py   -1.1633  -0.0000  -0.0000  -0.0000   0.0000  -3.2099  -0.0000
  13 O   :2pz   -0.0000   0.6030  -2.8814   0.0000  -1.2677  -0.0000  -0.0000
  14 O   :3d2-   0.0000  -0.0000   0.0000   0.0000  -0.0000   0.0000   0.0274
  15 O   :3d1-  -0.0274   0.0000   0.0000  -0.0000  -0.0000  -0.0254   0.0000
  16 O   :3d0    0.0000  -0.0061  -0.0162   0.0000  -0.0366   0.0000  -0.0000
  18 O   :3d2+  -0.0000  -0.0200   0.0225  -0.0000  -0.0095  -0.0000   0.0000
  19 O   :3d2-  -0.0000  -0.0000   0.0000   0.0000   0.0000  -0.0000  -0.0315
  20 O   :3d1-   0.1416   0.0000  -0.0000   0.0000  -0.0000   0.4567   0.0000
  21 O   :3d0    0.0000   0.0105   0.0865  -0.0000   0.1418   0.0000  -0.0000
  22 O   :3d1+  -0.0000  -0.0000  -0.0000   0.0361  -0.0000   0.0000   0.0000
  23 O   :3d2+  -0.0000   0.0387  -0.2798   0.0000   0.0702  -0.0000   0.0000
  24 O   :4f3-   0.0158   0.0000   0.0000   0.0000  -0.0000   0.0211  -0.0000
  25 O   :4f2-   0.0000   0.0000  -0.0000   0.0000  -0.0000   0.0000   0.0163
  26 O   :4f1-  -0.0151  -0.0000  -0.0000  -0.0000   0.0000  -0.0263  -0.0000
  27 O   :4f0    0.0000  -0.0097   0.0111   0.0000  -0.0162   0.0000   0.0000
  29 O   :4f2+   0.0000  -0.0173   0.0312  -0.0000   0.0020   0.0000   0.0000
  31 H   :1s     0.4140   0.3411   0.1437  -0.0000   0.0389  -0.1257  -0.0000
  32 H   :1s     1.3491   1.2747  -2.3638   0.0000  -0.9558   1.7131   0.0000
  33 H   :1s    -0.7470  -0.7101  -0.5269   0.0000   0.2438   1.5216   0.0000
  34 H   :2px   -0.0000  -0.0000  -0.0000   0.0126  -0.0000   0.0000  -0.0600
  35 H   :2py   -0.0476  -0.0314   0.0233  -0.0000  -0.0223  -0.0423   0.0000
  36 H   :2pz    0.0302   0.0177  -0.0136  -0.0000  -0.0376   0.0332  -0.0000
  37 H   :2px   -0.0000  -0.0000  -0.0000  -0.0103  -0.0000   0.0000   0.8475
  38 H   :2py   -0.0463   0.1985   0.9528  -0.0000   0.5284  -0.9254   0.0000
  39 H   :2pz   -0.0228   0.0696  -0.6129   0.0000   0.6926   0.7555  -0.0000
  40 H   :3d2-   0.0000   0.0000   0.0000  -0.0196   0.0000  -0.0000  -0.0130
  41 H   :3d1-  -0.0298  -0.0105   0.0638  -0.0000  -0.0259  -0.0913   0.0000
  42 H   :3d0   -0.0050   0.0130   0.0035  -0.0000   0.0432   0.0013  -0.0000
  43 H   :3d1+  -0.0000  -0.0000  -0.0000   0.0140  -0.0000   0.0000   0.0254
  44 H   :3d2+  -0.0151  -0.0092   0.0520  -0.0000   0.0309  -0.0608   0.0000
  45 H   :1s    -0.4140   0.3411   0.1437  -0.0000   0.0389   0.1257  -0.0000
  46 H   :1s    -1.3491   1.2747  -2.3638   0.0000  -0.9558  -1.7131   0.0000
  47 H   :1s     0.7470  -0.7101  -0.5269   0.0000   0.2438  -1.5216   0.0000
  48 H   :2px   -0.0000  -0.0000  -0.0000   0.0126  -0.0000   0.0000   0.0600
  49 H   :2py   -0.0476   0.0314  -0.0233  -0.0000   0.0223  -0.0423  -0.0000
  50 H   :2pz   -0.0302   0.0177  -0.0136  -0.0000  -0.0376  -0.0332  -0.0000
  51 H   :2px   -0.0000  -0.0000  -0.0000  -0.0103  -0.0000   0.0000  -0.8475
  52 H   :2py   -0.0463  -0.1985  -0.9528   0.0000  -0.5284  -0.9254  -0.0000
  53 H   :2pz    0.0228   0.0696  -0.6129   0.0000   0.6926  -0.7555  -0.0000
  54 H   :3d2-  -0.0000  -0.0000  -0.0000   0.0196  -0.0000   0.0000  -0.0130
  55 H   :3d1-  -0.0298   0.0105  -0.0638   0.0000   0.0259  -0.0913  -0.0000
  56 H   :3d0    0.0050   0.0130   0.0035  -0.0000   0.0432  -0.0013  -0.0000
  57 H   :3d1+  -0.0000  -0.0000  -0.0000   0.0140  -0.0000   0.0000  -0.0254
  58 H   :3d2+   0.0151  -0.0092   0.0520  -0.0000   0.0309   0.0608   0.0000

    Orbital        15
   5 O   :2px   -0.0639
   8 O   :2px   -0.0288
  11 O   :2px   -1.1163
  17 O   :3d1+  -0.0241
  30 O   :4f3+   0.0182
  34 H   :2px   -0.0727
  37 H   :2px    1.0070
  40 H   :3d2-  -0.0401
  48 H   :2px   -0.0727
  51 H   :2px    1.0070
  54 H   :3d2-   0.0401

  Total CPU  time used in SIRIUS :   0.17 seconds
  Total wall time used in SIRIUS :   0.21 seconds

 
     Date and time (Linux)  : Sat Apr 13 13:29:02 2024
     Host name              : node103                                 


                     .---------------------------------------.
                     | End of Wave Function Section (SIRIUS) |
                     `---------------------------------------'



                    .------------------------------------------.
                    | Starting in Coupled Cluster Section (CC) |
                    `------------------------------------------'

  

 *******************************************************************************
 *******************************************************************************
 *                                                                             *
 *                                                                             *
 *                    START OF COUPLED CLUSTER CALCULATION                     *
 *                                                                             *
 *                                                                             *
 *******************************************************************************
 *******************************************************************************

 
  I am freezing!
 Freezing HF-orbital   1 of symmetry   1 and with orbital energy  -20.5550
 In total frozen-core per symmetry-class:  1
 
 Freezing HF-orbital  58 of symmetry   1 and with orbital energy   12.8585
 Freezing HF-orbital  57 of symmetry   1 and with orbital energy    8.2851
 Freezing HF-orbital  56 of symmetry   1 and with orbital energy    7.7920
 Freezing HF-orbital  55 of symmetry   1 and with orbital energy    7.4550
 Freezing HF-orbital  54 of symmetry   1 and with orbital energy    7.2349
 Freezing HF-orbital  53 of symmetry   1 and with orbital energy    7.1676
 Freezing HF-orbital  52 of symmetry   1 and with orbital energy    7.0593
 In total frozen-virtual per symmetry-class:  7
 


 CCR12 ANSATZ =   0

 CCR12 APPROX =   0

   

 *******************************************************************
 *                                                                 *
 *----------                                             >---------*
 *---------- OUTPUT FROM COUPLED CLUSTER ENERGY PROGRAM  >---------*
 *----------                                             >---------*
 *                                                                 *
 *******************************************************************


             The Direct Coupled Cluster Energy Program
             -----------------------------------------


          Number of t1 amplitudes                 :       184
          Number of t2 amplitudes                 :     17020
          Total number of amplitudes in ccsd      :     17204

 Iter.  1: Coupled cluster MP2   energy :     -76.2989013630364212
 Iter.  1: Coupled cluster CCSD  energy :     -76.3005652634837475
 Iter.  2: Coupled cluster CCSD  energy :     -76.3049956809441170
 Iter.  3: Coupled cluster CCSD  energy :     -76.3058244688702558
 Iter.  4: Coupled cluster CCSD  energy :     -76.3057968891301073
 Iter.  5: Coupled cluster CCSD  energy :     -76.3058196049522621
 Iter.  6: Coupled cluster CCSD  energy :     -76.3058210703915734
 Iter.  7: Coupled cluster CCSD  energy :     -76.3058206230305416
 Iter.  8: Coupled cluster CCSD  energy :     -76.3058204133641595
 Iter.  9: Coupled cluster CCSD  energy :     -76.3058203248647260
 Iter. 10: Coupled cluster CCSD  energy :     -76.3058203087651350
 Iter. 11: Coupled cluster CCSD  energy :     -76.3058202964941614
 Iter. 12: Coupled cluster CCSD  energy :     -76.3058202976584852

 CCSD  energy converged to within   0.10D-07 is          -76.305820297658
 Final 2-norm of the CC vector function:  6.97750840D-08





             +-------------------------------------------------------+
             ! Final results from the Coupled Cluster energy program !
             +-------------------------------------------------------+



            Total SCF   energy:                   -76.0570826843

            Total MP2   energy:                   -76.2989013630

            Total CCSD  energy:                   -76.3058202977


                     Perturbative triples corrections
                     --------------------------------

            The E4 doubles and triples:            -0.0067768857
            The E5 singles and triples:             0.0002034052

            Total energy CCSD(T):                 -76.3123937781
  

 *******************************************************************************
 *******************************************************************************
 *                                                                             *
 *                                                                             *
 *                   SUMMARY OF COUPLED CLUSTER CALCULATION                    *
 *                                                                             *
 *                                                                             *
 *******************************************************************************
 *******************************************************************************

                                                                                
                                                                                
            Total SCF   energy:                   -76.0570826843                
            Total MP2   energy:                   -76.2989013630                
            Total CCSD  energy:                   -76.3058202977                
                                                                                
                                                                                
                     Perturbative triples corrections                           
                     --------------------------------                           
                                                                                
            The E4 doubles and triples:            -0.0067768857                
            The E5 singles and triples:             0.0002034052                
                                                                                
            Total energy CCSD(T):                 -76.3123937781                
  

 *******************************************************************************
 *******************************************************************************
 *                                                                             *
 *                                                                             *
 *                      END OF COUPLED CLUSTER CALCULATION                     *
 *                                                                             *
 *                                                                             *
 *******************************************************************************
 *******************************************************************************


 CPU and wall time for CC :       1.515       1.600

 
     Date and time (Linux)  : Sat Apr 13 13:29:04 2024
     Host name              : node103                                 


                      .-------------------------------------.
                      | End of Coupled Cluster Section (CC) |
                      `-------------------------------------'

  Total CPU  time used in DALTON:   1.70 seconds
  Total wall time used in DALTON:   1.87 seconds

 
     Date and time (Linux)  : Sat Apr 13 13:29:04 2024
     Host name              : node103                                 
