[Molden Format]
[GTO]
    1 0
 s  10 1.00
    3047.5249000    0.0018347000
     457.3695100    0.0140373000
     103.9486900    0.0688426000
      29.2101550    0.2321844000
       9.2866630    0.4679413000
       3.1639270    0.3623120000
       7.8682724    0.0000000000
       1.8812885    0.0000000000
       0.5442493    0.0000000000
       0.1687144    0.0000000000
 s  10 1.00
    3047.5249000    0.0000000000
     457.3695100    0.0000000000
     103.9486900    0.0000000000
      29.2101550    0.0000000000
       9.2866630    0.0000000000
       3.1639270    0.0000000000
       7.8682724   -0.1193324000
       1.8812885   -0.1608542000
       0.5442493    1.1434564000
       0.1687144    0.0000000000
 s  10 1.00
    3047.5249000    0.0000000000
     457.3695100    0.0000000000
     103.9486900    0.0000000000
      29.2101550    0.0000000000
       9.2866630    0.0000000000
       3.1639270    0.0000000000
       7.8682724    0.0000000000
       1.8812885    0.0000000000
       0.5442493    0.0000000000
       0.1687144    1.0000000000
 p   4 1.00
       7.8682724    0.0689991000
       1.8812885    0.3164240000
       0.5442493    0.7443083000
       0.1687144    0.0000000000
 p   4 1.00
       7.8682724    0.0000000000
       1.8812885    0.0000000000
       0.5442493    0.0000000000
       0.1687144    1.0000000000
 d   1 1.00
       0.8000000    1.0000000000

    2 0
 s  10 1.00
    3047.5249000    0.0018347000
     457.3695100    0.0140373000
     103.9486900    0.0688426000
      29.2101550    0.2321844000
       9.2866630    0.4679413000
       3.1639270    0.3623120000
       7.8682724    0.0000000000
       1.8812885    0.0000000000
       0.5442493    0.0000000000
       0.1687144    0.0000000000
 s  10 1.00
    3047.5249000    0.0000000000
     457.3695100    0.0000000000
     103.9486900    0.0000000000
      29.2101550    0.0000000000
       9.2866630    0.0000000000
       3.1639270    0.0000000000
       7.8682724   -0.1193324000
       1.8812885   -0.1608542000
       0.5442493    1.1434564000
       0.1687144    0.0000000000
 s  10 1.00
    3047.5249000    0.0000000000
     457.3695100    0.0000000000
     103.9486900    0.0000000000
      29.2101550    0.0000000000
       9.2866630    0.0000000000
       3.1639270    0.0000000000
       7.8682724    0.0000000000
       1.8812885    0.0000000000
       0.5442493    0.0000000000
       0.1687144    1.0000000000
 p   4 1.00
       7.8682724    0.0689991000
       1.8812885    0.3164240000
       0.5442493    0.7443083000
       0.1687144    0.0000000000
 p   4 1.00
       7.8682724    0.0000000000
       1.8812885    0.0000000000
       0.5442493    0.0000000000
       0.1687144    1.0000000000
 d   1 1.00
       0.8000000    1.0000000000

    3 0
 s  10 1.00
    3047.5249000    0.0018347000
     457.3695100    0.0140373000
     103.9486900    0.0688426000
      29.2101550    0.2321844000
       9.2866630    0.4679413000
       3.1639270    0.3623120000
       7.8682724    0.0000000000
       1.8812885    0.0000000000
       0.5442493    0.0000000000
       0.1687144    0.0000000000
 s  10 1.00
    3047.5249000    0.0000000000
     457.3695100    0.0000000000
     103.9486900    0.0000000000
      29.2101550    0.0000000000
       9.2866630    0.0000000000
       3.1639270    0.0000000000
       7.8682724   -0.1193324000
       1.8812885   -0.1608542000
       0.5442493    1.1434564000
       0.1687144    0.0000000000
 s  10 1.00
    3047.5249000    0.0000000000
     457.3695100    0.0000000000
     103.9486900    0.0000000000
      29.2101550    0.0000000000
       9.2866630    0.0000000000
       3.1639270    0.0000000000
       7.8682724    0.0000000000
       1.8812885    0.0000000000
       0.5442493    0.0000000000
       0.1687144    1.0000000000
 p   4 1.00
       7.8682724    0.0689991000
       1.8812885    0.3164240000
       0.5442493    0.7443083000
       0.1687144    0.0000000000
 p   4 1.00
       7.8682724    0.0000000000
       1.8812885    0.0000000000
       0.5442493    0.0000000000
       0.1687144    1.0000000000
 d   1 1.00
       0.8000000    1.0000000000

    4 0
 s   4 1.00
      18.7311370    0.0334946000
       2.8253937    0.2347269500
       0.6401217    0.8137573300
       0.1612778    0.0000000000
 s   4 1.00
      18.7311370    0.0000000000
       2.8253937    0.0000000000
       0.6401217    0.0000000000
       0.1612778    1.0000000000

    5 0
 s   4 1.00
      18.7311370    0.0334946000
       2.8253937    0.2347269500
       0.6401217    0.8137573300
       0.1612778    0.0000000000
 s   4 1.00
      18.7311370    0.0000000000
       2.8253937    0.0000000000
       0.6401217    0.0000000000
       0.1612778    1.0000000000

    6 0
 s   4 1.00
      18.7311370    0.0334946000
       2.8253937    0.2347269500
       0.6401217    0.8137573300
       0.1612778    0.0000000000
 s   4 1.00
      18.7311370    0.0000000000
       2.8253937    0.0000000000
       0.6401217    0.0000000000
       0.1612778    1.0000000000

    7 0
 s   4 1.00
      18.7311370    0.0334946000
       2.8253937    0.2347269500
       0.6401217    0.8137573300
       0.1612778    0.0000000000
 s   4 1.00
      18.7311370    0.0000000000
       2.8253937    0.0000000000
       0.6401217    0.0000000000
       0.1612778    1.0000000000

    8 0
 s   4 1.00
      18.7311370    0.0334946000
       2.8253937    0.2347269500
       0.6401217    0.8137573300
       0.1612778    0.0000000000
 s   4 1.00
      18.7311370    0.0000000000
       2.8253937    0.0000000000
       0.6401217    0.0000000000
       0.1612778    1.0000000000

[SCFCONV]
scf-first  1  THROUGH  13
     -115.4302687811
     -116.0700198738
     -116.1260414904
     -116.1342955410
     -116.1363979956
     -116.1369941704
     -116.1370539172
     -116.1370583952
     -116.1370585983
     -116.1370586075
     -116.1370586091
     -116.1370586099
     -116.1370586105
[GEOMETRIES] XYZ
    8

C             -8.9537900000         0.3200300000        -0.0044400000
C             -7.7946600000        -0.2715300000        -0.0036800000
C             -6.4776300000         0.4302300000        -0.0005200000
H             -5.8696100000         0.0875300000        -0.8432900000
H             -5.9377100000         0.2086500000         0.9250700000
H             -6.5935500000         1.5158300000        -0.0808100000
H             -9.9030600000         0.8059000000        -0.0041500000
H             -7.7689100000        -1.3576800000         0.0118300000
    8

C             -8.9537900000         0.3200300000        -0.0044400000
C             -7.7946600000        -0.2715300000        -0.0036800000
C             -6.4776300000         0.4302300000        -0.0005200000
H             -5.8696100000         0.0875300000        -0.8432900000
H             -5.9377100000         0.2086500000         0.9250700000
H             -6.5935500000         1.5158300000        -0.0808100000
H             -9.9030600000         0.8059000000        -0.0041500000
H             -7.7689100000        -1.3576800000         0.0118300000
    8

C             -8.9332377939         0.3028424085        -0.0026244859
C             -7.7967499201        -0.2685752263         0.0209205831
C             -6.4715459514         0.4545924749         0.0006313559
H             -5.9004256373         0.0857096640        -0.8465944337
H             -5.9406368172         0.2020227551         0.9141039687
H             -6.5685131049         1.5314242653        -0.0725699416
H             -9.8882423121         0.7855226263        -0.0222879963
H             -7.7995684631        -1.3545789678         0.0084309498
    8

C             -8.9296417640         0.2994361149        -0.0116904248
C             -7.7974554960        -0.2674392282        -0.0127216540
C             -6.4662452758         0.4590632267        -0.0047689469
H             -5.8898502376         0.0964266885        -0.8480904724
H             -5.9532747725         0.1912323767         0.9122873624
H             -6.5658204487         1.5333755022        -0.0654964743
H             -9.8863304147         0.7808749237        -0.0096757396
H             -7.8103015907        -1.3540096046         0.0401663495
    8

C             -8.9299052440         0.2982330392        -0.0101199208
C             -7.7988276881        -0.2637811055         0.0098065014
C             -6.4544583884         0.4603002521        -0.0016633460
H             -5.8964806379         0.1005553764        -0.8554239673
H             -5.9330709471         0.1907031641         0.9074185081
H             -6.5723301452         1.5299227184        -0.0589488000
H             -9.8886025289         0.7752418208        -0.0270765803
H             -7.8252444203        -1.3522152655         0.0360176048
    8

C             -8.9342583504         0.2983759678        -0.0115874567
C             -7.7992576198        -0.2603233320         0.0116802072
C             -6.4503351435         0.4601752170        -0.0012342404
H             -5.8975460053         0.1018975829        -0.8590972532
H             -5.9273546816         0.1865078972         0.9055042119
H             -6.5665519431         1.5307719572        -0.0546247647
H             -9.8954581086         0.7686095353        -0.0313902634
H             -7.8281581476        -1.3470548254         0.0407595593
    8

C             -8.9406484824         0.2995400834        -0.0149290962
C             -7.7998375921        -0.2512536044         0.0134930063
C             -6.4432496696         0.4603668173        -0.0009169569
H             -5.8995505841         0.1042563682        -0.8658548444
H             -5.9180066503         0.1765982804         0.9013201283
H             -6.5542219543         1.5327530978        -0.0459216559
H             -9.9091454321         0.7530520076        -0.0389334529
H             -7.8342596351        -1.3363530503         0.0517528718
    8

C             -8.9416681490         0.2991401499        -0.0159747107
C             -7.7996950985        -0.2473168705         0.0139189839
C             -6.4421921770         0.4605271630        -0.0010070226
H             -5.9004505013         0.1050221729        -0.8674700148
H             -5.9159107059         0.1730295874         0.8994662941
H             -6.5507429505         1.5331508387        -0.0431930661
H             -9.9122735479         0.7483508694        -0.0412023598
H             -7.8359868700        -1.3329439109         0.0554718960
    8

C             -8.9456365935         0.2992394981        -0.0186331453
C             -7.7986099022        -0.2330783455         0.0165437224
C             -6.4387995339         0.4604945018        -0.0009264855
H             -5.9032791238         0.1060193946        -0.8719654163
H             -5.9082902643         0.1619651188         0.8936458334
H             -6.5375793981         1.5341006621        -0.0351765690
H             -9.9247977344         0.7302460400        -0.0486537040
H             -7.8419274498        -1.3200268699         0.0651757642
    8

C             -8.9461312788         0.2998583099        -0.0186648681
C             -7.7981141637        -0.2303011762         0.0167330616
C             -6.4379745319         0.4604642050        -0.0008394656
H             -5.9028031851         0.1052959534        -0.8717334839
H             -5.9074718965         0.1612707658         0.8934194389
H             -6.5348935425         1.5340707907        -0.0351428674
H             -9.9273354050         0.7259489076        -0.0486499965
H             -7.8441959966        -1.3176477562         0.0648881811
    8

C             -8.9460654229         0.3008420935        -0.0179002244
C             -7.7975496044        -0.2285100014         0.0161065006
C             -6.4372384037         0.4604092273        -0.0008053118
H             -5.9007892257         0.1034177273        -0.8700710232
H             -5.9080730477         0.1626481076         0.8946599601
H             -6.5331952217         1.5339228942        -0.0372780109
H             -9.9291651713         0.7224159328        -0.0465088768
H             -7.8468439026        -1.3161859813         0.0618069865
    8

C             -8.9458256328         0.3012403611        -0.0172244235
C             -7.7974443332        -0.2285182669         0.0152356138
C             -6.4370787417         0.4603918006        -0.0008525516
H             -5.8991484673         0.1019746055        -0.8685956330
H             -5.9093186260         0.1643198136         0.8960438841
H             -6.5331896644         1.5338440035        -0.0393682678
H             -9.9293656511         0.7219297840        -0.0443187107
H             -7.8475488835        -1.3162221015         0.0590900887
    8

C             -8.9457501415         0.3013838087        -0.0166618287
C             -7.7974949847        -0.2286583782         0.0144507354
C             -6.4370164103         0.4603993151        -0.0009266863
H             -5.8978629010         0.1007699125        -0.8674020969
H             -5.9105375654         0.1656312495         0.8972065353
H             -6.5332596815         1.5338125970        -0.0410848624
H             -9.9294080093         0.7219732217        -0.0424972408
H             -7.8475903063        -1.3163517264         0.0569254444
    8

C             -8.9458126665         0.3013752182        -0.0163315173
C             -7.7975692205        -0.2286644465         0.0139855964
C             -6.4369948071         0.4604112560        -0.0009664230
H             -5.8971650958         0.0999941844        -0.8666819711
H             -5.9113128964         0.1663600396         0.8978938795
H             -6.5332081630         1.5337975959        -0.0421062694
H             -9.9294663440         0.7220606646        -0.0414147482
H             -7.8473908066        -1.3163745122         0.0556314530
[GEOCONV]
energy
     -116.1370586105
     -116.1370586105
     -116.1399688747
     -116.1402065470
     -116.1404683015
     -116.1405080875
     -116.1405322170
     -116.1405476487
     -116.1405737812
     -116.1405765611
     -116.1405785264
     -116.1405790000
     -116.1405791842
     -116.1405792498
[TITLE]
*** Dalton interface to Molden, wave function type : HF            26Mar24   11:
[Atoms] AU
C          1     6       -16.9051359052         0.5695166233        -0.030862094
C          2     6       -14.7352702674        -0.4321131784         0.026428946
C          3     6       -12.1641572534         0.8700511787        -0.001826274
H          4     1       -11.1440269449         0.1889616225        -1.637791562
H          5     1       -11.1707624134         0.3143749130         1.696773521
H          6     1       -12.3459741457         2.8984573875        -0.079569317
H          7     1       -18.7639719576         1.3644969017        -0.078262531
H          8     1       -14.8294194202        -2.4875873060         0.105128210
[5D7F]
[9G]
[MO]
Sym= A
Ene=  -11.6057
Spin= Alpha
Occup=  2.0000
    1       -0.996032
    2       -0.023141
    3        0.012529
    4       -0.000508
    5        0.000291
    6       -0.000015
    7        0.002365
    8       -0.001157
    9        0.000065
   10        0.000459
   11       -0.000063
   12       -0.000001
   13       -0.001102
   14        0.001209
   15       -0.016890
   16        0.001058
   17       -0.005313
   18       -0.000877
   19        0.000442
   20       -0.000024
   21        0.003338
   22       -0.001342
   23        0.000080
   24       -0.000214
   25        0.000010
   26       -0.000009
   27        0.000180
   28       -0.000150
   29        0.000039
   30        0.000266
   31       -0.000766
   32       -0.000102
   33       -0.000019
   35        0.000504
   36        0.000611
   37       -0.000018
   38        0.000081
   40        0.000004
   41       -0.000018
   42       -0.000031
   43        0.000020
   44       -0.000007
   45        0.000020
   46       -0.000008
   47        0.000140
   48       -0.000491
   49        0.001149
   50       -0.001626
   51        0.000107
   52       -0.000555
Sym= A
Ene=  -11.5340
Spin= Alpha
Occup=  2.0000
    1        0.017765
    2        0.001686
    3       -0.007557
    4        0.000742
    5       -0.000398
    6        0.000022
    7       -0.003930
    8        0.001493
    9       -0.000092
   10       -0.000302
   11        0.000016
   12       -0.000020
   13        0.000078
   14       -0.000273
   15       -0.995968
   16       -0.025180
   17        0.017741
   18        0.001016
   19       -0.000410
   20        0.000024
   21       -0.002275
   22        0.001872
   23       -0.000091
   24        0.000756
   25       -0.000029
   26        0.000035
   27       -0.000481
   28        0.000341
   29       -0.003445
   30        0.000157
   31       -0.002208
   32       -0.000210
   33       -0.000024
   34       -0.000001
   35        0.001844
   36       -0.000332
   37        0.000027
   38       -0.000259
   39       -0.000010
   40       -0.000008
   41        0.000151
   42        0.000396
   43        0.000167
   44       -0.000682
   45        0.000167
   46       -0.000680
   47        0.000184
   48        0.000443
   49       -0.000061
   50       -0.000795
   51        0.000226
   52       -0.002167
Sym= A
Ene=  -11.4539
Spin= Alpha
Occup=  2.0000
    1        0.000037
    2       -0.000388
    3        0.002155
    4       -0.000165
    5       -0.000054
    6        0.000001
    7        0.001803
    8       -0.001021
    9        0.000055
   10       -0.000128
   11        0.000005
   12       -0.000012
   13       -0.000054
   14       -0.000101
   15       -0.003522
   16       -0.000298
   17        0.001696
   18       -0.000088
   19       -0.000137
   20        0.000005
   21        0.003371
   22        0.000825
   23       -0.000003
   24        0.000279
   25        0.000008
   26        0.000002
   27       -0.000358
   28       -0.000392
   29        0.996201
   30        0.025992
   31       -0.018487
   32       -0.000841
   33       -0.000420
   34        0.000009
   35        0.001239
   36        0.000982
   37       -0.000027
   38        0.000048
   39        0.000001
   40       -0.000001
   41       -0.000084
   42       -0.000075
   43        0.000083
   44        0.003162
   45        0.000083
   46        0.003162
   47        0.000036
   48        0.002931
   49        0.000089
   50        0.000769
   51       -0.000114
   52        0.000325
Sym= A
Ene=   -1.3657
Spin= Alpha
Occup=  2.0000
    1        0.143288
    2       -0.296281
    3       -0.162277
    4       -0.141572
    5        0.062397
    6       -0.003614
    7        0.012775
    8       -0.006455
    9        0.000368
   10        0.010523
   11       -0.000928
   12        0.000259
   13       -0.015226
   14        0.016507
   15        0.169522
   16       -0.325963
   17       -0.246157
   18        0.096208
   19       -0.051764
   20        0.002828
   21        0.020923
   22        0.001103
   23        0.000134
   24        0.018325
   25       -0.000411
   26        0.001081
   27       -0.004405
   28        0.002593
   29        0.068067
   30       -0.127689
   31       -0.112019
   32        0.052809
   33        0.020063
   34       -0.000321
   35        0.008453
   36        0.002718
   37       -0.000021
   38        0.004322
   39        0.000068
   40        0.000077
   41       -0.004484
   42       -0.004420
   43       -0.031846
   44        0.003905
   45       -0.031841
   46        0.003891
   47       -0.033824
   48        0.001378
   49       -0.050059
   50        0.012265
   51       -0.084419
   52        0.000101
Sym= A
Ene=   -1.1853
Spin= Alpha
Occup=  2.0000
    1       -0.104000
    2        0.220618
    3        0.151397
    4        0.011814
    5       -0.027981
    6        0.001162
    7       -0.033018
    8        0.009546
    9       -0.000666
   10       -0.008024
   11        0.000754
   12       -0.000357
   13        0.007967
   14       -0.014527
   15        0.006016
   16       -0.020312
   17        0.022887
   18       -0.221837
   19       -0.013057
   20       -0.001403
   21       -0.054991
   22       -0.002273
   23       -0.000380
   24        0.004073
   25        0.000449
   26        0.000106
   27       -0.001313
   28       -0.013483
   29        0.172748
   30       -0.331315
   31       -0.339971
   32       -0.001641
   33        0.014301
   34       -0.000559
   35        0.005046
   36        0.006709
   37       -0.000205
   38       -0.002714
   39       -0.000014
   40       -0.000019
   41        0.003709
   42        0.002166
   43       -0.116623
   44       -0.016476
   45       -0.116629
   46       -0.016486
   47       -0.109948
   48       -0.017857
   49        0.078055
   50        0.002018
   51       -0.000169
   52       -0.003169
Sym= A
Ene=   -1.0427
Spin= Alpha
Occup=  2.0000
    1       -0.100222
    2        0.229070
    3        0.209065
    4       -0.309615
    5        0.161328
    6       -0.008973
    7       -0.146037
    8        0.067048
    9       -0.003886
   10       -0.012138
   11        0.000858
   12       -0.000220
   13        0.018438
   14       -0.012991
   15        0.088235
   16       -0.182638
   17       -0.111675
   18        0.051287
   19        0.091475
   20       -0.003114
   21       -0.006309
   22        0.064828
   23       -0.002553
   24        0.012080
   25       -0.000279
   26        0.001027
   27        0.004788
   28        0.003720
   29       -0.055063
   30        0.108675
   31        0.117054
   32        0.056449
   33        0.046660
   34       -0.001322
   35        0.020832
   36        0.007490
   37       -0.000116
   38        0.004647
   39        0.000183
   41       -0.006371
   42       -0.007929
   43        0.048269
   44        0.013999
   45        0.048256
   46        0.013988
   47        0.063535
   48        0.023675
   49        0.256788
   50        0.063309
   51       -0.116847
   52       -0.030064
Sym= A
Ene=   -0.9247
Spin= Alpha
Occup=  2.0000
    1       -0.025007
    2        0.050437
    3        0.030229
    4        0.296154
    5       -0.052074
    6        0.004600
    7        0.103993
    8       -0.027712
    9        0.001989
   10        0.003951
   11       -0.000363
   12        0.000546
   13        0.005218
   14        0.008807
   15        0.035595
   16       -0.077459
   17       -0.174233
   18       -0.197846
   19        0.353965
   20       -0.015372
   21       -0.024384
   22        0.163545
   23       -0.006536
   24        0.006663
   25        0.000670
   26        0.001107
   27        0.020389
   28       -0.015459
   29       -0.018020
   30        0.035969
   31        0.030111
   32       -0.004604
   33        0.162657
   34       -0.006318
   35       -0.000451
   36        0.068186
   37       -0.002632
   38       -0.004389
   39        0.000400
   40       -0.000493
   41       -0.003650
   42       -0.009796
   43       -0.011103
   44       -0.004964
   45       -0.011242
   46       -0.005029
   47        0.101995
   48        0.045710
   49       -0.124462
   50       -0.053144
   51       -0.227839
   52       -0.092709
Sym= A
Ene=   -0.8135
Spin= Alpha
Occup=  2.0000
    1        0.020513
    2       -0.043382
    3       -0.009672
    4       -0.051538
    5        0.150201
    6       -0.006432
    7       -0.009831
    8        0.040887
    9       -0.001755
   10       -0.000111
   11       -0.000268
   12        0.000512
   13        0.011291
   14        0.009214
   15       -0.049955
   16        0.110019
   17        0.169913
   18        0.333874
   19        0.226222
   20       -0.006071
   21        0.193689
   22        0.153475
   23       -0.004370
   24       -0.001448
   25       -0.000236
   26       -0.000020
   27        0.000663
   28        0.006859
   29        0.027944
   30       -0.047656
   31       -0.177866
   32       -0.352896
   33       -0.105738
   34        0.000620
   35       -0.115472
   36       -0.021969
   37       -0.000377
   38       -0.019119
   39       -0.000422
   40       -0.000412
   41        0.016847
   42        0.021327
   43       -0.112644
   44       -0.065992
   45       -0.113155
   46       -0.066270
   47       -0.071457
   48       -0.040211
   49        0.038800
   50        0.026189
   51       -0.083296
   52       -0.030291
Sym= A
Ene=   -0.8042
Spin= Alpha
Occup=  2.0000
    1        0.000015
    2       -0.000045
    3        0.000134
    4       -0.001505
    5        0.006525
    6        0.164171
    7       -0.000635
    8        0.003255
    9        0.083801
   10        0.000501
   11        0.011592
   12       -0.004948
   13        0.000105
   14        0.000500
   15       -0.000051
   16        0.000130
   17        0.000031
   18       -0.001223
   19        0.007470
   20        0.187722
   21       -0.000555
   22        0.003937
   23        0.098837
   24       -0.000583
   25       -0.000528
   26        0.008516
   27       -0.000330
   28       -0.000085
   29        0.000026
   30       -0.000039
   31       -0.000191
   32       -0.003933
   33        0.015924
   34        0.413993
   35       -0.002034
   36        0.008587
   37        0.222085
   38        0.001646
   39        0.018448
   40       -0.022112
   41        0.000685
   42        0.000890
   43       -0.203659
   44       -0.116802
   45        0.203113
   46        0.116475
   47        0.000222
   48        0.000132
   49        0.000048
   50        0.000080
   51       -0.000068
   52       -0.000010
Sym= A
Ene=   -0.7644
Spin= Alpha
Occup=  2.0000
    1       -0.024020
    2        0.059544
    3        0.040782
    4        0.104436
    5       -0.004218
    6        0.001098
    7        0.019862
    8       -0.004742
    9        0.000362
   10        0.002240
   11       -0.000111
   12        0.000346
   13        0.004411
   14        0.002975
   15        0.006921
   16       -0.017750
   17       -0.020608
   18       -0.031117
   19        0.159827
   20       -0.006415
   21        0.009871
   22        0.099195
   23       -0.003726
   24        0.003985
   25        0.000653
   26        0.001025
   27        0.022621
   28       -0.013389
   29       -0.000961
   30        0.004424
   31       -0.017969
   32        0.161994
   33       -0.401820
   34        0.016957
   35        0.112347
   36       -0.228351
   37        0.009818
   38        0.025363
   39       -0.000131
   40        0.002535
   41        0.023996
   42        0.000127
   43        0.127483
   44        0.077470
   45        0.128044
   46        0.077810
   47       -0.264036
   48       -0.172024
   49       -0.027373
   50       -0.026390
   51       -0.122974
   52       -0.084738
Sym= A
Ene=   -0.6814
Spin= Alpha
Occup=  2.0000
    1        0.000024
    2       -0.000064
    3        0.000014
    4        0.004007
    5       -0.017731
    6       -0.458336
    7        0.002634
    8       -0.011427
    9       -0.294935
   10       -0.001043
   11       -0.021183
   12        0.010918
   13       -0.000239
   14       -0.000913
   15       -0.000010
   16        0.000040
   17       -0.000081
   18        0.002542
   19       -0.011536
   20       -0.299116
   21        0.001707
   22       -0.007438
   23       -0.191716
   24        0.001249
   25        0.036862
   26       -0.010507
   27        0.000090
   28        0.001512
   29        0.000001
   30       -0.000001
   31       -0.000006
   32       -0.001716
   33        0.007774
   34        0.201311
   35       -0.001127
   36        0.005091
   37        0.130729
   38        0.000829
   39        0.020604
   40       -0.008526
   41        0.000139
   42        0.000849
   43       -0.115793
   44       -0.090064
   45        0.115636
   46        0.089969
   47        0.000147
   48        0.000074
   49        0.000014
   50        0.000010
   51       -0.000005
   52       -0.000008
Sym= A
Ene=   -0.2036
Spin= Alpha
Occup=  0.0000
    1       -0.001437
    2        0.008183
    3       -0.056390
    4       -0.190080
    5       -0.449392
    6        0.015718
    7       -0.285434
    8       -0.561491
    9        0.019236
   10        0.000543
   11       -0.000104
   12        0.000150
   13        0.002118
   14        0.003054
   15       -0.002532
   16        0.007149
   17        0.055921
   18        0.019300
   19        0.049053
   20       -0.001723
   21       -0.032037
   22        0.084499
   23       -0.003554
   24       -0.000280
   25       -0.000688
   26        0.001792
   27        0.040789
   28        0.026979
   29       -0.036567
   30        0.070012
   31        0.254491
   32       -0.154893
   33       -0.042431
   34        0.000348
   35       -0.111369
   36       -0.032089
   37        0.000431
   38       -0.000827
   39       -0.000281
   40       -0.000054
   41       -0.001702
   42        0.007210
   43       -0.020014
   44       -0.079997
   45       -0.020060
   46       -0.080193
   47        0.004549
   48       -0.089791
   49        0.001726
   50       -0.013532
   51       -0.133981
   52       -0.254808
Sym= A
Ene=   -0.0774
Spin= Alpha
Occup=  0.0000
    1        0.000054
    2       -0.000079
    3       -0.000264
    4        0.003201
    5       -0.013883
    6       -0.358816
    7        0.006281
    8       -0.025602
    9       -0.656163
   10        0.001548
   11        0.033608
   12       -0.015669
   13        0.000331
   14        0.001420
   15       -0.000021
   16        0.000080
   17       -0.000342
   18       -0.003720
   19        0.016430
   20        0.424290
   21       -0.006393
   22        0.029760
   23        0.775444
   24        0.001043
   25        0.016628
   26       -0.011778
   27        0.000307
   28        0.000750
   31        0.000009
   32        0.000287
   33       -0.001196
   34       -0.032244
   35        0.000446
   36       -0.001881