

     ************************************************************************
     *************** Dalton - An Electronic Structure Program ***************
     ************************************************************************

    This is output from DALTON release Dalton2022.0-dev (2022)
         ( Web site: http://daltonprogram.org )

   ----------------------------------------------------------------------------

    NOTE:
     
    Dalton is an experimental code for the evaluation of molecular
    properties using (MC)SCF, DFT, CI, and CC wave functions.
    The authors accept no responsibility for the performance of
    the code or for the correctness of the results.
     
    The code (in whole or part) is provided under a licence and
    is not to be reproduced for further distribution without
    the written permission of the authors or their representatives.
     
    See the home page "http://daltonprogram.org" for further information.
     
    If results obtained with this code are published,
    the appropriate citations would be both of:
     
       K. Aidas, C. Angeli, K. L. Bak, V. Bakken,
       R. Bast, L. Boman, O. Christiansen, R. Cimiraglia,
       S. Coriani, P. Dahle, E. K. Dalskov, U. Ekstroem,
       T. Enevoldsen, J. J. Eriksen, P. Ettenhuber, B. Fernandez,
       L. Ferrighi, H. Fliegl, L. Frediani, K. Hald, A. Halkier,
       C. Haettig, H. Heiberg, T. Helgaker, A. C. Hennum,
       H. Hettema, E. Hjertenaes, S. Hoest, I.-M. Hoeyvik,
       M. F. Iozzi, B. Jansik, H. J. Aa. Jensen, D. Jonsson,
       P. Joergensen, J. Kauczor, S. Kirpekar,
       T. Kjaergaard, W. Klopper, S. Knecht, R. Kobayashi, H. Koch,
       J. Kongsted, A. Krapp, K. Kristensen, A. Ligabue,
       O. B. Lutnaes, J. I. Melo, K. V. Mikkelsen, R. H. Myhre,
       C. Neiss, C. B. Nielsen, P. Norman, J. Olsen,
       J. M. H. Olsen, A. Osted, M. J. Packer, F. Pawlowski,
       T. B. Pedersen, P. F. Provasi, S. Reine, Z. Rinkevicius,
       T. A. Ruden, K. Ruud, V. Rybkin, P. Salek, C. C. M. Samson,
       A. Sanchez de Meras, T. Saue, S. P. A. Sauer,
       B. Schimmelpfennig, K. Sneskov, A. H. Steindal,
       K. O. Sylvester-Hvid, P. R. Taylor, A. M. Teale,
       E. I. Tellgren, D. P. Tew, A. J. Thorvaldsen, L. Thoegersen,
       O. Vahtras, M. A. Watson, D. J. D. Wilson, M. Ziolkowski
       and H. Agren,
       "The Dalton quantum chemistry program system",
       WIREs Comput. Mol. Sci. 2014, 4:269-284 (doi: 10.1002/wcms.1172)
     
    and
     
       Dalton, a molecular electronic structure program,
       Release Dalton2022.0-dev (2022), see http://daltonprogram.org
   ----------------------------------------------------------------------------

    Authors in alphabetical order (Major contribution(s) in parenthesis):

  Kestutis Aidas,              Vilnius University,        Lithuania   (QM/MM)
  Celestino Angeli,            University of Ferrara,     Italy       (NEVPT2)
  Juan J. Aucar,               Northeast National UniversiArgentina   (LRESC, Relativistic Effects on EFG)
  Keld L. Bak,                 UNI-C,                     Denmark     (AOSOPPA, non-adiabatic coupling, magnetic properties)
  Vebjoern Bakken,             University of Oslo,        Norway      (DALTON; geometry optimizer, symmetry detection)
  Radovan Bast,                UiT The Arctic U. of NorwayNorway      (DALTON installation and execution frameworks)
  Pablo Baudin,                University of Valencia,    Spain       (Cholesky excitation energies)
  Linus Boman,                 NTNU,                      Norway      (Cholesky decomposition and subsystems)
  Bruno N. Cabral Tenorio,     Technical Univ. of Denmark,Denmark     (Lanczos-based CC methods)
  Ove Christiansen,            Aarhus University,         Denmark     (CC module)
  Renzo Cimiraglia,            University of Ferrara,     Italy       (NEVPT2)
  Sonia Coriani,               Technical Univ. of Denmark,Denmark     (CC and RESPONS modules)
  Janusz Cukras,               University of Warsaw,      Poland      (MChD in RESPONS)
  Paal Dahle,                  University of Oslo,        Norway      (Parallelization)
  Erik K. Dalskov,             UNI-C,                     Denmark     (SOPPA)
  Thomas Enevoldsen,           Univ. of Southern Denmark, Denmark     (SOPPA)
  Janus J. Eriksen,            Aarhus University,         Denmark     (Polarizable embedding, TDA)
  Rasmus Faber,                Technical Univ. of Denmark,Denmark     (Vib.avg. NMR w. SOPPA, parallel AO-SOPPA, CVS-CC and EOMCC)
  Tobias Fahleson,             KTH Stockholm,             Sweden      (Damped cubic response)
  Berta Fernandez,             U. of Santiago de CompostelSpain       (Doublet spin, ESR in RESPONS)
  Lara Ferrighi,               Aarhus University,         Denmark     (PCM Cubic response)
  Heike Fliegl,                University of Oslo,        Norway      (CCSD(R12))
  Luca Frediani,               UiT The Arctic U. of NorwayNorway      (PCM)
  Emmanuel Fromager,           Univ. Strasbourg,          France      (MC-srDFT)
  Bin Gao,                     UiT The Arctic U. of NorwayNorway      (Gen1Int library)
  Andre S. P. Gomes,           CNRS/Universite de Lille,  France      (Frozen density embedding)
  Christof Haettig,            Ruhr-University Bochum,    Germany     (CC module)
  Kasper Hald,                 Aarhus University,         Denmark     (CC module)
  Asger Halkier,               Aarhus University,         Denmark     (CC module)
  Frederik Beyer Hansen,       University of Copenhagen,  Denmark     (Parallel AO-SOPPA)
  Erik D. Hedegaard,           Univ. of Southern Denmark, Denmark     (Polarizable embedding, QM/MM, and MC-srDFT)
  Hanne Heiberg,               University of Oslo,        Norway      (Geometry analysis, selected one-electron integrals)
  Trygve Helgaker,             University of Oslo,        Norway      (DALTON; ABACUS, ERI, DFT modules, London, and much more)
  Alf Christian Hennum,        University of Oslo,        Norway      (Parity violation)
  Hinne Hettema,               University of Auckland,    New Zealand (Quadratic response in RESPONS; SIRIUS supersymmetry)
  Andreas E. Hillers-Bendtsen, University of Copenhagen,  Denmark     (MP3)
  Eirik Hjertenaes,            NTNU,                      Norway      (Cholesky decomposition)
  Nicolai Machholdt Hoeyer,    Aarhus University,         Denmark     (MP3)
  Pi A. B. Haase,              University of Copenhagen,  Denmark     (Triplet AO-SOPPA)
  Maria Francesca Iozzi,       University of Oslo,        Norway      (RPA)
  Christoph Jacob,             TU Braunschweig            Germany     (Frozen density embedding)
  Brano Jansik,                Technical Univ. of Ostrava Czech Rep.  (DFT cubic response)
  Hans Joergen Aa. Jensen,     Univ. of Southern Denmark, Denmark     (DALTON; SIRIUS, RESPONS, ABACUS, MC-srDFT, and much more)
  Dan Jonsson,                 UiT The Arctic U. of NorwayNorway      (Cubic response in RESPONS module)
  Poul Joergensen,             Aarhus University,         Denmark     (RESPONS, ABACUS, and CC modules)
  Maciej Kaminski,             University of Warsaw,      Poland      (CPPh in RESPONS)
  Joanna Kauczor,              Linkoeping University,     Sweden      (Complex polarization propagator (CPP) module)
  Sheela Kirpekar,             Univ. of Southern Denmark, Denmark     (Mass-velocity & Darwin integrals)
  Frederik Oersted Kjeldal,    Technical Univ. of Denmark,Denmark     (MP3)
  Erik Kjellgren,              Univ. of Southern Denmark, Denmark     (MC-srDFT)
  Wim Klopper,                 KIT Karlsruhe,             Germany     (R12 code in CC, SIRIUS, and ABACUS modules)
  Stefan Knecht,               ETH Zurich,                Switzerland (Parallel CI and MCSCF, MC-srDFT)
  Rika Kobayashi,              Australian National Univ., Australia   (DIIS in CC, London in MCSCF)
  Henrik Koch,                 NTNU,                      Norway      (CC module, Cholesky decomposition)
  Jacob Kongsted,              Univ. of Southern Denmark, Denmark     (Polarizable embedding, polarizable density embedding, QM/MM)
  Andrea Ligabue,              University of Modena,      Italy       (CTOCD, AOSOPPA)
  Nanna H. List,               Univ. of Southern Denmark, Denmark     (Polarizable embedding)
  Ola B. Lutnaes,              University of Oslo,        Norway      (DFT Hessian)
  Juan I. Melo,                University of Buenos Aires,Argentina   (LRESC, Relativistic Effects on NMR Shieldings)
  Kurt V. Mikkelsen,           University of Copenhagen,  Denmark     (MC-SCRF, QM/MM, and MP3)
  Rolf H. Myhre,               NTNU,                      Norway      (Subsystems and CC3)
  Christian Neiss,             Univ. Erlangen-Nuernberg,  Germany     (CCSD(R12))
  Christian B. Nielsen,        University of Copenhagen,  Denmark     (QM/MM)
  Patrick Norman,              KTH Stockholm,             Sweden      (Cubic response and complex frequency response in RESPONS)
  Jeppe Olsen,                 Aarhus University,         Denmark     (SIRIUS CI/density modules)
  Jogvan Magnus H. Olsen,      Aarhus University,         Denmark     (Polarizable embedding and polarizable density embedding)
  Anders Osted,                Copenhagen University,     Denmark     (QM/MM)
  Martin J. Packer,            University of Sheffield,   UK          (SOPPA)
  Filip Pawlowski,             Kazimierz Wielki UniversityPoland      (CC3)
  Morten N. Pedersen,          Univ. of Southern Denmark, Denmark     (Polarizable embedding)
  Thomas B. Pedersen,          University of Oslo,        Norway      (Cholesky decomposition)
  Patricio F. Provasi,         University of Northeastern,Argentina   (Analysis of coupling constants in localized orbitals)
  Peter Reinholdt,             Univ. of Southern Denmark, Denmark     (Polarizable embedding and polarizable density embedding)
  Zilvinas Rinkevicius,        KTH Stockholm,             Sweden      (open-shell DFT, ESR)
  Elias Rudberg,               KTH Stockholm,             Sweden      (DFT grid and basis info)
  Torgeir A. Ruden,            University of Oslo,        Norway      (Numerical derivatives in ABACUS)
  Kenneth Ruud,                UiT The Arctic U. of NorwayNorway      (DALTON; ABACUS magnetic properties and much more)
  Pawel Salek,                 KTH Stockholm,             Sweden      (DALTON; DFT code)
  Claire C. M. Samson,         University of Karlsruhe    Germany     (Boys localization, r12 integrals in ERI)
  Alfredo Sanchez de Meras,    University of Valencia,    Spain       (CC module, Cholesky decomposition)
  Trond Saue,                  Paul Sabatier University,  France      (direct Fock matrix construction)
  Stephan P. A. Sauer,         University of Copenhagen,  Denmark     (SOPPA(CCSD), SOPPA prop., AOSOPPA, vibrational g-factors)
  Bernd Schimmelpfennig,       Forschungszentrum KarlsruheGermany     (AMFI module)
  Anna K. Schnack-Petersen,    University of Copenhagen,  Denmark     (RPA(D) and HRPA(D) properties in AOSOPPA)
  Kristian Sneskov,            Aarhus University,         Denmark     (Polarizable embedding, QM/MM)
  Arnfinn H. Steindal,         UiT The Arctic U. of NorwayNorway      (parallel QM/MM, polarizable embedding)
  Casper Steinmann,            Aalborg University,        Denmark     (QFIT, polarizable embedding)
  K. O. Sylvester-Hvid,        University of Copenhagen,  Denmark     (MC-SCRF)
  Peter R. Taylor,             VLSCI/Univ. of Melbourne,  Australia   (Symmetry handling ABACUS, integral transformation)
  Andrew M. Teale,             University of Nottingham,  England     (DFT-AC, DFT-D)
  David P. Tew,                University of Bristol,     England     (CCSD(R12))
  Julien Toulouse,             Sorbonne Univ.,            France      (MC-srDFT)
  Olav Vahtras,                KTH Stockholm,             Sweden      (Triplet response, spin-orbit, ESR, TDDFT, open-shell DFT)
  Lucas Visscher,              Vrije Universiteit AmsterdaNetherlands (Frozen density embedding)
  David J. Wilson,             La Trobe University,       Australia   (DFT Hessian and DFT magnetizabilities)
  Luna Zamok,                  University of Copenhagen,  Denmark     (Block Lanczos RPA solver in SOPPA module)
  Hans Agren,                  KTH Stockholm,             Sweden      (SIRIUS module, RESPONS, MC-SCRF solvation)
 --------------------------------------------------------------------------------

     Date and time (Linux)  : Sat Apr 13 14:16:02 2024
     Host name              : node100                                 

 * Work memory size             :    64000000 =  488.28 megabytes.

 * Directories for basis set searches:
   1) /home1/s4925076/dalton-files/Sample_inputs_dalton2024_updated/ex2good/31Gstar
   2) /home3/hb-qchav/Dalton/basis


Compilation information
-----------------------

 Who compiled             | p256146
 Host                     | login1
 System                   | Linux-4.18.0-425.13.1.el8_7.x86_64
 CMake generator          | Unix Makefiles
 Processor                | x86_64
 64-bit integers          | OFF
 MPI                      | ON
 Fortran compiler         | /cvmfs/hpc.rug.nl/versions/2023.01/rocky8/x86_64/a
                          | md/zen3/software/impi/2021.7.1-intel-compilers-202
                          | 2.2.1/mpi/2021.7.1/bin/mpiifort
 Fortran compiler version | unknown
 C compiler               | /cvmfs/hpc.rug.nl/versions/2023.01/rocky8/x86_64/a
                          | md/zen3/software/impi/2021.7.1-intel-compilers-202
                          | 2.2.1/mpi/2021.7.1/bin/mpiicc
 C compiler version       | unknown
 C++ compiler             | /cvmfs/hpc.rug.nl/versions/2023.01/rocky8/x86_64/a
                          | md/zen3/software/impi/2021.7.1-intel-compilers-202
                          | 2.2.1/mpi/2021.7.1/bin/mpiicpc
 C++ compiler version     | unknown
 BLAS                     | /cvmfs/hpc.rug.nl/versions/2023.01/rocky8/x86_64/a
                          | md/zen3/software/imkl/2022.2.1/mkl/2022.2.1/lib/in
                          | tel64/libmkl_intel_lp64.so;/cvmfs/hpc.rug.nl/versi
                          | ons/2023.01/rocky8/x86_64/amd/zen3/software/imkl/2
                          | 022.2.1/mkl/2022.2.1/lib/intel64/libmkl_sequential
                          | .so;/cvmfs/hpc.rug.nl/versions/2023.01/rocky8/x86_
                          | 64/amd/zen3/software/imkl/2022.2.1/mkl/2022.2.1/li
                          | b/intel64/libmkl_core.so;/usr/lib64/libpthread.so;
                          | /usr/lib64/libm.so
 LAPACK                   | /cvmfs/hpc.rug.nl/versions/2023.01/rocky8/x86_64/a
                          | md/zen3/software/imkl/2022.2.1/mkl/2022.2.1/lib/in
                          | tel64/libmkl_lapack95_lp64.a;/cvmfs/hpc.rug.nl/ver
                          | sions/2023.01/rocky8/x86_64/amd/zen3/software/imkl
                          | /2022.2.1/mkl/2022.2.1/lib/intel64/libmkl_intel_lp
                          | 64.so
 Static linking           | OFF
 Last Git revision        | 4d6ac05be54d7f9c5fe49e0ac32a42491a6c6955
 Git branch               | master
 Configuration time       | 2023-04-05 13:35:07.780405

 * Sequential calculation.


   Content of the .dal input file
 ----------------------------------

**DALTON INPUT
.RUN WAVEFUNCTION
.OPTIMIZE
**WAVE FUNCTION
.HF
**END OF DALTON INPUT


   Content of the .mol file
 ----------------------------

BASIS
6-31G*
opt

Atomtypes=2 Nosymmetry Angstrom Charge=1
Charge=6.0 Atoms=3
C1         -8.95379        0.32003       -0.00444
C2         -7.79466       -0.27153       -0.00368
C3         -6.47763        0.43023       -0.00052
Charge=1.0 Atoms=5
H         -5.86961        0.08753       -0.84329
H         -5.93771        0.20865        0.92507
H         -6.59355        1.51583       -0.08081
H         -9.90306        0.80590       -0.00415
H         -7.76891       -1.35768        0.01183


       *******************************************************************
       *********** Output from DALTON general input processing ***********
       *******************************************************************

 --------------------------------------------------------------------------------
   Overall default print level:    0
   Print level for DALTON.STAT:    1

    HERMIT 1- and 2-electron integral sections will be executed
    "Old" integral transformation used (limited to max 255 basis functions)
    Wave function sections will be executed (SIRIUS module)
 --------------------------------------------------------------------------------


 Chosen parameters for *OPTIMI :
 -------------------------------

 Default 1st order method will be used:   BFGS update.
 Optimization will be performed in redundant internal coordinates (by default).
 Model Hessian will be used as initial Hessian.
 The model Hessian parameters of Roland Lindh will be used.
 
 
 Trust region method will be used to control step (default).
 
 Convergence threshold for gradient set to :      1.00D-04
 Convergence threshold for energy set to   :      1.00D-06
 Convergence threshold for step set to     :      1.00D-04
 Number of convergence criteria set to     :   2


              >>>>>>>>>>>>>>>>>>>>>>>>>>>>>>>>>>>>>>>>>>>>>>>>>>>>>
              >>>>>>>>>> 1st Order Geometry Optimization >>>>>>>>>>
              >>>>>>>>>>>>>>>>>>>>>>>>>>>>>>>>>>>>>>>>>>>>>>>>>>>>>


 Reading .mol file to determine number of atoms for parallel runs.


   ****************************************************************************
   *************** Output of molecule and basis set information ***************
   ****************************************************************************


    The two title cards from your ".mol" input:
    --------------------------------------------------------------------------------
 1: opt
 2: 
    --------------------------------------------------------------------------------

  Coordinates are entered in Angstrom and converted to atomic units.
          - Conversion factor : 1 bohr = 0.52917721 A

  Atomic type no.    1
  --------------------
  Nuclear charge:   6.00000
  Number of symmetry independent centers:    3
  Number of basis sets to read;    2
  Basis set file used for this atomic type with Z =   6 :
     "/home3/hb-qchav/Dalton/basis/6-31G*"

  Info about the basis set file: your basis has no documentation.
  Basis set: 6-31G*                                                                          

  Atomic type no.    2
  --------------------
  Nuclear charge:   1.00000
  Number of symmetry independent centers:    5
  Number of basis sets to read;    2
  Basis set file used for this atomic type with Z =   1 :
     "/home3/hb-qchav/Dalton/basis/6-31G*"

  Info about the basis set file: your basis has no documentation.
  Basis set: 6-31G*                                                                          


                         SYMGRP: Point group information
                         -------------------------------

@    Point group: C1 


                                 Isotopic Masses
                                 ---------------

                           C1         12.000000
                           C2         12.000000
                           C3         12.000000
                           H           1.007825
                           H           1.007825
                           H           1.007825
                           H           1.007825
                           H           1.007825

                       Total mass:    41.039125 amu
                       Natural abundance:  96.664 %

 Center-of-mass coordinates (a.u.):  -14.507921    0.323012   -0.004373
 Center-of-mass coordinates (Angs):   -7.677261    0.170931   -0.002314


  Atoms and basis sets
  --------------------

  Number of atom types :    2
  Total number of atoms:    8

  Basis set used is "6-31G*" from the basis set library.

  label    atoms   charge   prim   cont     basis
  ----------------------------------------------------------------------
  C3          3    6.0000    27    14      [10s4p1d|3s2p1d]                                   
  H           5    1.0000     4     2      [4s|2s]                                            
  ----------------------------------------------------------------------
  total:      8   23.0000   101    52
  ----------------------------------------------------------------------
  Spherical harmonic basis used.

  Threshold for neglecting AO integrals:  1.00D-12


  Cartesian Coordinates (a.u.)
  ----------------------------

  Total number of coordinates:   24
  C1      :     1  x -16.9202108807    2  y   0.6047690518    3  z  -0.0083903840
  C2      :     4  x -14.7297726374    5  y  -0.5131173347    6  z  -0.0069541921
  C3      :     7  x -12.2409466390    8  y   0.8130168708    9  z  -0.0009826576
  H       :    10  x -11.0919553605   11  y   0.1654077277   12  z  -1.5935871439
  H       :    13  x -11.2206457096   14  y   0.3942913560   15  z   1.7481289464
  H       :    16  x -12.4600036915   17  y   2.8645035520   18  z  -0.1527087682
  H       :    19  x -18.7140711994   20  y   1.5229302841   21  z  -0.0078423634
  H       :    22  x -14.6811121897   23  y  -2.5656433654   24  z   0.0223554601


   Interatomic separations (in Angstrom):
   --------------------------------------

            C1          C2          C3          H           H           H     
            ------      ------      ------      ------      ------      ------
 C1    :    0.000000
 C2    :    1.301356    0.000000
 C3    :    2.478614    1.492329    0.000000
 H     :    3.204667    2.130654    1.094254    0.000000
 H     :    3.158027    2.131059    1.094225    1.773811    0.000000
 H     :    2.646980    2.154825    1.094720    1.773557    1.775004    0.000000
 H     :    1.066388    2.367743    3.445970    4.181977    4.116328    3.385666
 H     :    2.054000    1.086566    2.205488    2.535193    2.576954    3.105980

            H           H     
            ------      ------
 H     :    0.000000
 H     :    3.039067    0.000000


  Max    interatomic separation is    4.1820 Angstrom (    7.9028 Bohr)
  between atoms    7 and    4, "H     " and "H     ".

  Min HX interatomic separation is    1.0664 Angstrom (    2.0152 Bohr)

  Min YX interatomic separation is    1.3014 Angstrom (    2.4592 Bohr)


  Bond distances (Angstrom):
  --------------------------

                  atom 1     atom 2       distance
                  ------     ------       --------
  bond distance:  C2         C1           1.301356
  bond distance:  C3         C2           1.492329
  bond distance:  H          C3           1.094254
  bond distance:  H          C3           1.094225
  bond distance:  H          C3           1.094720
  bond distance:  H          C1           1.066388
  bond distance:  H          C2           1.086566


  Bond angles (degrees):
  ----------------------

                  atom 1     atom 2     atom 3         angle
                  ------     ------     ------         -----
  bond angle:     C2         C1         H            179.917
  bond angle:     C1         C2         C3           124.912
  bond angle:     C1         C2         H            118.393
  bond angle:     C3         C2         H            116.687
  bond angle:     C2         C3         H            109.967
  bond angle:     C2         C3         H            110.001
  bond angle:     C2         C3         H            111.884
  bond angle:     H          C3         H            108.294
  bond angle:     H          C3         H            108.235
  bond angle:     H          C3         H            108.367




 Principal moments of inertia (u*A**2) and principal axes
 --------------------------------------------------------

   IA       9.488092          0.998640    0.052122    0.001464
   IB      51.216391         -0.052118    0.998637   -0.002862
   IC      57.532641         -0.001611    0.002782    0.999995


 Rotational constants
 --------------------

               A                   B                   C

          53264.5544           9867.5248           8784.2136 MHz
            1.776714            0.329145            0.293010 cm-1


@  Nuclear repulsion energy :   64.655169304646 Hartree


                     .---------------------------------------.
                     | Starting in Integral Section (HERMIT) |
                     `---------------------------------------'



 ***************************************************************************************
 ****************** Output from **INTEGRALS input processing (HERMIT) ******************
 ***************************************************************************************


 - Using defaults, no **INTEGRALS input found

 Default print level:        1

 Calculation of one- and two-electron Hamiltonian integrals.

 Center of mass  (bohr):    -14.507920502186      0.323012436646     -0.004372723960
 Operator center (bohr):      0.000000000000      0.000000000000      0.000000000000
 Gauge origin    (bohr):      0.000000000000      0.000000000000      0.000000000000
 Dipole origin   (bohr):      0.000000000000      0.000000000000      0.000000000000

Calculation of 2-electron integrals are postponed until they are needed.


     ************************************************************************
     ************************** Output from HERINT **************************
     ************************************************************************



                      Nuclear contribution to dipole moments
                      --------------------------------------

                 au               Debye          C m (/(10**-30)

      x   -331.51336909      -842.62288185     -2810.68739178
      y      7.80950108        19.84977054        66.21170750
      z     -0.08161727        -0.20745040        -0.69198004


  Total CPU  time used in HERMIT:   0.02 seconds
  Total wall time used in HERMIT:   0.02 seconds


                        .----------------------------------.
                        | End of Integral Section (HERMIT) |
                        `----------------------------------'



                   .--------------------------------------------.
                   | Starting in Wave Function Section (SIRIUS) |
                   `--------------------------------------------'


 *** Output from Huckel module :

     Using EWMO model:          T
     Using EHT  model:          F
     Number of Huckel orbitals each symmetry:   20

 EWMO - Energy Weighted Maximum Overlap - is a Huckel type method,
        which normally is better than Extended Huckel Theory.
 Reference: Linderberg and Ohrn, Propagators in Quantum Chemistry (Wiley, 1973)

 Huckel EWMO eigenvalues for symmetry :  1
          -11.357162     -11.350287     -11.344875      -1.646376      -1.217159
           -0.971487      -0.753397      -0.745015      -0.568218      -0.502543
           -0.484597      -0.333271      -0.239401      -0.141336      -0.130224
           -0.122375      -0.117830      -0.116186      -0.103862      -0.067998

 **********************************************************************
 *SIRIUS* a direct, restricted step, second order MCSCF program       *
 **********************************************************************

 
     Date and time (Linux)  : Sat Apr 13 14:16:03 2024
     Host name              : node100                                 

 Title lines from ".mol" input file:
     opt
     

 Print level on unit LUPRI =   2 is   0
 Print level on unit LUW4  =   2 is   5

@    Restricted, closed shell Hartree-Fock calculation.

@    Time-dependent Hartree-Fock calculation (random phase approximation).

 Initial molecular orbitals are obtained according to
 ".MOSTART EWMO  " input option

     Wave function specification
     ============================
@    Wave function type        --- HF ---
@    Number of closed shell electrons          22
@    Number of electrons in active shells       0
@    Total charge of the molecule               1

@    Spin multiplicity and 2 M_S                1         0
@    Total number of symmetries                 1 (point group: C1 )
@    Reference state symmetry                   1 (irrep name : A  )

     Orbital specifications
     ======================
@    Abelian symmetry species          All |    1
@                                          |  A  
                                       --- |  ---
@    Occupied SCF orbitals              11 |   11
@    Secondary orbitals                 41 |   41
@    Total number of orbitals           52 |   52
@    Number of basis functions          52 |   52

     Optimization information
     ========================
@    Number of configurations                 1
@    Number of orbital rotations            451
     ------------------------------------------
@    Total number of variables              452

     Maximum number of Fock   iterations      0
     Maximum number of DIIS   iterations     60
     Maximum number of QC-SCF iterations     60
     Threshold for SCF convergence     1.00D-05


 ***********************************************
 ***** DIIS acceleration of SCF iterations *****
 ***********************************************

 C1-DIIS algorithm; max error vectors =    8

 Iter      Total energy        Error norm    Delta(E)  DIIS dim.
 -----------------------------------------------------------------------------

Calculating AOSUPINT

---> (Re)generating AOTWOINT


     ************************************************************************
     ************************** Output from HERINT **************************
     ************************************************************************


 Threshold for neglecting two-electron integrals:  1.00D-12
 HERMIT - Number of two-electron integrals written:      931360 ( 98.0% )
 HERMIT - Megabytes written:                             10.670

  Total CPU  time used in TWOINT:   0.12 seconds
  Total wall time used in TWOINT:   0.12 seconds
  Time used in TWOINT     is       0.12 seconds
  CPU  time used in MAKE_AOTWOINT is   0.12 seconds
  WALL time used in MAKE_AOTWOINT is   0.12 seconds
     (Precalculated AO two-electron integrals are transformed to P-supermatrix elements.
      Threshold for discarding integrals :  1.00D-12 )

@  1    -115.430268781        2.95494D+00   -1.15D+02    1
      Virial theorem: -V/T =      2.031224
@    MULPOP   C1      0.47; C2      0.55; C3      0.56; H      -0.11; H      -0.11; H      -0.13; H      -0.14; H      -0.07; 
   1  Level shift: doubly occupied orbital energies shifted by -2.00D-01
 -----------------------------------------------------------------------------
@  2    -116.070019874        9.05950D-01   -6.40D-01    2
      Virial theorem: -V/T =      1.996565
@    MULPOP   C1      0.49; C2     -0.36; C3     -0.55; H       0.28; H       0.28; H       0.26; H       0.26; H       0.35; 
   2  Level shift: doubly occupied orbital energies shifted by -1.00D-01
 -----------------------------------------------------------------------------
@  3    -116.126041490        2.60567D-01   -5.60D-02    3
      Virial theorem: -V/T =      2.001619
@    MULPOP   C1      0.15; C2     -0.14; C3     -0.51; H       0.27; H       0.27; H       0.24; H       0.37; H       0.35; 
   3  Level shift: doubly occupied orbital energies shifted by -5.00D-02
 -----------------------------------------------------------------------------
@  4    -116.134295541        1.07153D-01   -8.25D-03    4
      Virial theorem: -V/T =      2.001232
@    MULPOP   C1      0.21; C2     -0.23; C3     -0.57; H       0.28; H       0.28; H       0.26; H       0.40; H       0.36; 
   4  Level shift: doubly occupied orbital energies shifted by -2.50D-02
 -----------------------------------------------------------------------------
@  5    -116.136397996        4.41279D-02   -2.10D-03    5
      Virial theorem: -V/T =      2.000733
@    MULPOP   C1      0.15; C2     -0.19; C3     -0.57; H       0.28; H       0.28; H       0.25; H       0.42; H       0.37; 
   5  Level shift: doubly occupied orbital energies shifted by -1.25D-02
 -----------------------------------------------------------------------------
@  6    -116.136994170        1.38300D-02   -5.96D-04    6
      Virial theorem: -V/T =      2.000564
@    MULPOP   C1      0.14; C2     -0.18; C3     -0.57; H       0.28; H       0.28; H       0.25; H       0.42; H       0.37; 
 -----------------------------------------------------------------------------
@  7    -116.137053917        4.94418D-03   -5.97D-05    7
      Virial theorem: -V/T =      2.000542
@    MULPOP   C1      0.14; C2     -0.17; C3     -0.57; H       0.28; H       0.28; H       0.25; H       0.42; H       0.36; 
 -----------------------------------------------------------------------------
@  8    -116.137058395        1.19037D-03   -4.48D-06    8
      Virial theorem: -V/T =      2.000544
@    MULPOP   C1      0.14; C2     -0.17; C3     -0.57; H       0.28; H       0.28; H       0.25; H       0.42; H       0.36; 
 -----------------------------------------------------------------------------
@  9    -116.137058598        2.50199D-04   -2.03D-07    8
      Virial theorem: -V/T =      2.000543
@    MULPOP   C1      0.14; C2     -0.17; C3     -0.57; H       0.28; H       0.28; H       0.25; H       0.42; H       0.36; 
 -----------------------------------------------------------------------------
@ 10    -116.137058608        7.28831D-05   -9.22D-09    8
      Virial theorem: -V/T =      2.000543
@    MULPOP   C1      0.14; C2     -0.17; C3     -0.57; H       0.28; H       0.28; H       0.25; H       0.42; H       0.36; 
 -----------------------------------------------------------------------------
@ 11    -116.137058609        3.43330D-05   -1.65D-09    8
      Virial theorem: -V/T =      2.000543
@    MULPOP   C1      0.14; C2     -0.17; C3     -0.57; H       0.28; H       0.28; H       0.25; H       0.42; H       0.36; 
 -----------------------------------------------------------------------------
@ 12    -116.137058610        2.23518D-05   -7.78D-10    8
      Virial theorem: -V/T =      2.000543
@    MULPOP   C1      0.14; C2     -0.17; C3     -0.57; H       0.28; H       0.28; H       0.25; H       0.42; H       0.36; 
 -----------------------------------------------------------------------------
@ 13    -116.137058610        6.97535D-06   -5.30D-10    8

@ *** DIIS converged in  13 iterations !
@     Converged SCF energy, gradient:   -116.137058610458    6.98D-06
    - total time used in SIRFCK :              0.00 seconds


 *** SCF orbital energy analysis ***

 Only the 20 lowest virtual orbital energies printed in each symmetry.

 Number of electrons        :   22
 Closed shell orbitals      :   11

 Sym       Hartree-Fock orbital energies

1 A     -11.61224270   -11.54306292   -11.45266740    -1.35940475    -1.18168752
         -1.04516194    -0.93200921    -0.81843747    -0.80030886    -0.75413992
         -0.67206956    -0.20763494    -0.09058108     0.02321397     0.06794442
          0.08684460     0.12558739     0.13042897     0.19882135     0.32610967
          0.40280591     0.46877676     0.54766018     0.56700754     0.60919478
          0.62326823     0.63440608     0.73102517     0.76139388     0.78280120
          0.89508937

    E(LUMO) :    -0.20763494 au (symmetry 1)
  - E(HOMO) :    -0.67206956 au (symmetry 1)
  ------------------------------------------
    gap     :     0.46443462 au

 --- Writing SIRIFC interface file

--------------------------------------------------------------------------------


     .--------------------------------------------------.
     | HF-SCF KT IPs [a.u. & eV] from Koopmans' theorem |
     `--------------------------------------------------'


     HF-SCF KT symmetry 1 ( A  ) in point group C1  -- 11 principal poles with pole strength 1

   ============  ============  ============  ============  ============
      11.612243     11.543063     11.452667      1.359405      1.181688
     315.985198    314.102720    311.642933     36.991285     32.155353
   ============  ============  ============  ============  ============

   ============  ============  ============  ============  ============
       1.045162      0.932009      0.818437      0.800309      0.754140
      28.440303     25.361261     22.270816     21.777512     20.521191
   ============  ============  ============  ============  ============

   ============
       0.672070
      18.287943
   ============

@ Summary of HF-SCF KT ionization potentials [eV]:

@ Symmetry 1 (A  ) :   315.985     314.103     311.643      36.991      32.155
@                       28.440      25.361      22.271      21.778      20.521
@                       18.288

  === End of HF-SCF KT output ===
--------------------------------------------------------------------------------


 CPU and wall time for SCF :       0.199       0.520


                       .-----------------------------------.
                       | --- Final results from SIRIUS --- |
                       `-----------------------------------'


@    Spin multiplicity:           1
@    Spatial symmetry:            1 ( irrep  A   in C1  )
@    Total charge of molecule:    1

@    Final HF energy:            -116.137058610458                 
@    Nuclear repulsion:            64.655169304646
@    Electronic energy:          -180.792227915104

@    Final gradient norm:           0.000006975352

 
     Date and time (Linux)  : Sat Apr 13 14:16:03 2024
     Host name              : node100                                 

File label for MO orbitals:  13Apr24   FOCKDIIS

 (Only coefficients > 0.0100 are printed.)

 Molecular orbitals for symmetry species 1  (A  )
 ------------------------------------------------

    Orbital         2        3        4        5        6        7        8
   1 C1  :1s     0.0149   0.0000   0.1353  -0.1175  -0.0944  -0.0199   0.0206
   2 C1  :1s     0.0015  -0.0004  -0.2838   0.2530   0.2144   0.0392  -0.0466
   3 C1  :1s    -0.0067   0.0021  -0.1623   0.1790   0.1974   0.0156  -0.0260
   4 C1  :2px    0.0007  -0.0002  -0.1289   0.0054  -0.2916   0.2982  -0.0493
   5 C1  :2py   -0.0004  -0.0000   0.0611  -0.0235   0.1754  -0.0896   0.1465
   7 C1  :2px   -0.0035   0.0019   0.0054  -0.0352  -0.1341   0.1083  -0.0130
   8 C1  :2py    0.0015  -0.0011  -0.0053   0.0127   0.0724  -0.0427   0.0418
  10 C1  :3d2-  -0.0003  -0.0001   0.0172  -0.0171  -0.0140   0.0085   0.0080
  12 C1  :3d0   -0.0004  -0.0001   0.0100  -0.0088  -0.0115   0.0038  -0.0009
  14 C1  :3d2+   0.0001  -0.0000  -0.0135   0.0077   0.0148   0.0045   0.0114
  15 C2  :1s    -0.9960  -0.0036   0.1678   0.0036   0.0921   0.0368  -0.0423
  16 C2  :1s    -0.0250  -0.0003  -0.3288  -0.0153  -0.1923  -0.0796   0.0948
  17 C2  :1s     0.0172   0.0017  -0.2419   0.0344  -0.1329  -0.1748   0.1435
  18 C2  :2px    0.0008  -0.0002   0.0691  -0.2293   0.0538  -0.2038   0.3275
  19 C2  :2py   -0.0005  -0.0002  -0.0604  -0.0055   0.0995   0.3473   0.2373
  21 C2  :2px   -0.0016   0.0033   0.0147  -0.0537  -0.0059  -0.0367   0.1748
  22 C2  :2py    0.0021   0.0006  -0.0016   0.0035   0.0681   0.1576   0.1559
  24 C2  :3d2-   0.0003  -0.0004   0.0031  -0.0150   0.0059  -0.0117   0.0105
  26 C2  :3d0    0.0007   0.0003   0.0184   0.0039   0.0118   0.0064  -0.0016
  28 C2  :3d2+  -0.0004  -0.0003  -0.0031  -0.0005   0.0063   0.0197   0.0009
  29 C3  :1s    -0.0035   0.9962   0.0788   0.1649  -0.0641  -0.0190   0.0246
  30 C3  :1s     0.0002   0.0260  -0.1483  -0.3139   0.1242   0.0363  -0.0398
  31 C3  :1s    -0.0027  -0.0182  -0.1264  -0.3319   0.1442   0.0427  -0.1726
  32 C3  :2px   -0.0002  -0.0008   0.0611  -0.0010   0.0629  -0.0029  -0.3630
  33 C3  :2py   -0.0000  -0.0004   0.0244   0.0167   0.0538   0.1568  -0.1018
  35 C3  :2px    0.0020   0.0010   0.0082   0.0062   0.0218  -0.0035  -0.1229
  36 C3  :2py   -0.0002   0.0009   0.0024   0.0062   0.0093   0.0633  -0.0188
  38 C3  :3d2-   0.0004   0.0000  -0.0050   0.0013  -0.0088  -0.0103   0.0210
  40 C3  :3d0   -0.0003  -0.0000   0.0048  -0.0022   0.0050  -0.0036  -0.0197
  42 C3  :3d2+   0.0001   0.0000  -0.0049   0.0023  -0.0060  -0.0025   0.0140
  43 H   :1s     0.0002   0.0001  -0.0354  -0.1099   0.0558  -0.0097  -0.1220
  44 H   :1s    -0.0006   0.0031   0.0031  -0.0165   0.0154  -0.0047  -0.0700
  45 H   :1s     0.0002   0.0001  -0.0358  -0.1094   0.0566  -0.0019  -0.1180
  46 H   :1s    -0.0007   0.0031   0.0038  -0.0159   0.0159  -0.0014  -0.0684
  47 H   :1s     0.0002   0.0001  -0.0386  -0.1010   0.0716   0.0974  -0.0601
  48 H   :1s     0.0004   0.0029   0.0010  -0.0167   0.0258   0.0440  -0.0334
  49 H   :1s    -0.0001   0.0001  -0.0499   0.0933   0.2460  -0.1357   0.0393
  50 H   :1s    -0.0007   0.0008   0.0081   0.0049   0.0603  -0.0531   0.0258
  51 H   :1s     0.0003  -0.0002  -0.0811  -0.0056  -0.1229  -0.2252  -0.0875
  52 H   :1s    -0.0020   0.0002  -0.0005  -0.0032  -0.0300  -0.0866  -0.0332

    Orbital         9       10       11       12       13       14       15
   1 C1  :1s    -0.0000  -0.0229   0.0003   0.0006  -0.0008   0.1048  -0.0285
   2 C1  :1s     0.0012   0.0585  -0.0001   0.0032   0.0017  -0.1334   0.1091
   3 C1  :1s    -0.0079   0.0334  -0.0069  -0.0643  -0.0008  -1.2821   0.3858
   4 C1  :2px    0.0012   0.0961  -0.0029  -0.2254  -0.0011   0.1736  -0.0521
   5 C1  :2py    0.0014  -0.0151  -0.0034  -0.4363  -0.0046  -0.0703   0.0473
   6 C1  :2pz    0.1659  -0.0018  -0.4628   0.0051  -0.3578  -0.0029   0.0032
   7 C1  :2px   -0.0070   0.0142  -0.0068  -0.3266  -0.0095   0.9308  -0.1883
   8 C1  :2py    0.0035  -0.0100  -0.0005  -0.5322  -0.0034  -0.3947   0.4905
   9 C1  :2pz    0.0876  -0.0001  -0.3064   0.0057  -0.6195  -0.0083  -0.0078
  10 C1  :3d2-   0.0001   0.0021  -0.0001   0.0021   0.0005  -0.0264  -0.0114
  11 C1  :3d1-  -0.0051   0.0001   0.0107   0.0001  -0.0171  -0.0001  -0.0002
  12 C1  :3d0    0.0001   0.0020   0.0001   0.0006   0.0001  -0.0129   0.0060
  13 C1  :3d1+   0.0114  -0.0001  -0.0200  -0.0001   0.0319   0.0004  -0.0001
  14 C1  :3d2+   0.0000   0.0043  -0.0002   0.0023  -0.0000   0.0164  -0.0106
  15 C2  :1s     0.0002   0.0055  -0.0006  -0.0035   0.0013  -0.0694  -0.0701
  16 C2  :1s    -0.0018  -0.0145   0.0006   0.0063  -0.0022   0.1875   0.1109
  17 C2  :1s     0.0102  -0.0058   0.0089   0.0775  -0.0061   0.2175   1.4564
  18 C2  :2px    0.0000  -0.0133   0.0006   0.0290   0.0001  -0.1310   0.0528
  19 C2  :2py    0.0034   0.1664  -0.0028   0.0390   0.0041   0.0189  -0.2625
  20 C2  :2pz    0.1920  -0.0030  -0.2871  -0.0005   0.4305   0.0040   0.0028
  21 C2  :2px   -0.0044   0.0119  -0.0042  -0.0333  -0.0059   0.1990   0.0189
  22 C2  :2py    0.0050   0.1098   0.0015   0.0644   0.0159  -0.3077  -0.9861
  23 C2  :2pz    0.0998  -0.0023  -0.1915   0.0009   0.7474   0.0161   0.0226
  24 C2  :3d2-  -0.0000  -0.0107   0.0003   0.0265  -0.0001   0.0071  -0.0073
  25 C2  :3d1-   0.0099   0.0006  -0.0120   0.0004  -0.0110  -0.0001  -0.0007
  27 C2  :3d1+   0.0005  -0.0000   0.0353  -0.0003   0.0168   0.0000   0.0000
  28 C2  :3d2+   0.0001   0.0238   0.0002   0.0390   0.0004  -0.0059   0.0117
  29 C3  :1s     0.0000  -0.0018  -0.0000  -0.0373  -0.0006  -0.0009  -0.0302
  30 C3  :1s    -0.0001   0.0078   0.0001   0.0724   0.0014   0.0071   0.0204
  31 C3  :1s    -0.0008  -0.0214   0.0005   0.2534   0.0028   0.0918   0.7074
  32 C3  :2px   -0.0031   0.1554  -0.0018  -0.1460  -0.0015   0.0434   0.1347
  33 C3  :2py    0.0011  -0.4007   0.0018  -0.0362  -0.0035   0.0499  -0.0577
  34 C3  :2pz    0.4102   0.0021   0.2012  -0.0025  -0.0270  -0.0025  -0.0027
  35 C3  :2px   -0.0011   0.1177  -0.0001  -0.0995   0.0057   0.1504   0.4200
  36 C3  :2py    0.0003  -0.2345  -0.0019  -0.0213  -0.0180   0.2884  -0.0443
  37 C3  :2pz    0.2280   0.0010   0.1356  -0.0091  -0.0480  -0.0193  -0.0243
  38 C3  :3d2-   0.0025   0.0025   0.0015   0.0077  -0.0010   0.0010   0.0118
  39 C3  :3d1-  -0.0195   0.0060  -0.0070  -0.0004  -0.0084   0.0001  -0.0015
  40 C3  :3d0    0.0054   0.0237   0.0031  -0.0011  -0.0021   0.0011  -0.0064
  41 C3  :3d1+   0.0187  -0.0029   0.0218   0.0001  -0.0314  -0.0004   0.0007
  42 C3  :3d2+   0.0017   0.0254   0.0007  -0.0035  -0.0004   0.0082  -0.0118
  43 H   :1s    -0.1912   0.1371  -0.1129  -0.0251   0.0779   0.0095  -0.0279
  44 H   :1s    -0.1098   0.0858  -0.0910  -0.0890   0.1576  -0.0418  -0.6881
  45 H   :1s     0.2077   0.1048   0.1219  -0.0212  -0.0855   0.0077  -0.0195
  46 H   :1s     0.1197   0.0654   0.0962  -0.0760  -0.1916  -0.0351  -0.5793
  47 H   :1s    -0.0174  -0.2669  -0.0090   0.0116   0.0076  -0.0133   0.0389
  48 H   :1s    -0.0103  -0.1825  -0.0046  -0.0781   0.0308  -0.3157   0.1262
  49 H   :1s    -0.0002  -0.0255   0.0002   0.0014  -0.0015   0.1589  -0.0042
  50 H   :1s    -0.0031  -0.0253  -0.0017  -0.0151  -0.0081   2.0069  -0.6813
  51 H   :1s    -0.0011  -0.1252  -0.0001  -0.1247   0.0011  -0.0055  -0.0335
  52 H   :1s    -0.0010  -0.0854   0.0006  -0.2334   0.0087  -0.5849  -1.8412

    Orbital        16       17       18       19       20       21
   1 C1  :1s    -0.0031   0.0069  -0.0002  -0.0022  -0.0947   0.0039
   2 C1  :1s     0.0619   0.0203   0.0021   0.1274  -0.0246   0.8208
   3 C1  :1s    -0.3552  -0.1752  -0.0731   0.0309   4.1708  -0.2242
   4 C1  :2px    0.0254  -0.1400   0.0171  -0.0006   0.2083   0.0546
   5 C1  :2py    0.1038   0.1014   0.0023   0.0631  -0.1064  -0.1204
   6 C1  :2pz   -0.0028  -0.0116   0.0137   0.0017  -0.0122   0.0045
   7 C1  :2px   -0.3329  -0.6723  -0.0030  -0.5703   3.4616  -0.0809
   8 C1  :2py    0.1771   0.4017  -0.0211  -0.5082  -1.8582   0.1195
   9 C1  :2pz    0.0034  -0.0324  -0.1820   0.0043   0.0038  -0.0054
  10 C1  :3d2-   0.0013  -0.0071   0.0006   0.0042   0.0247  -0.0845
  11 C1  :3d1-   0.0005  -0.0012  -0.0117   0.0001   0.0004  -0.0001
  12 C1  :3d0   -0.0021   0.0015   0.0008   0.0043   0.0256  -0.0570
  14 C1  :3d2+   0.0005   0.0051  -0.0004   0.0338  -0.0137   0.0449
  15 C2  :1s     0.0255  -0.0542   0.0066  -0.0796   0.0823   0.0199
  16 C2  :1s     0.0080  -0.0114  -0.0105   0.1183  -0.0673   0.3124
  17 C2  :1s    -0.2202   1.6300  -0.1118   1.9581  -4.1671  -0.6047
  18 C2  :2px   -0.0238   0.0238  -0.0025   0.2210   0.1375  -0.5001
  19 C2  :2py    0.0805  -0.0687   0.0205   0.2412  -0.1521   0.1096
  20 C2  :2pz   -0.0014   0.0123   0.0226  -0.0024   0.0022  -0.0017
  21 C2  :2px   -0.4771  -0.1353  -0.0461   1.6220   3.6329   0.8197
  22 C2  :2py    0.3668  -0.2643   0.1361   1.5057  -1.7183  -0.2763
  23 C2  :2pz   -0.0148   0.0764   0.4603  -0.0106   0.0141   0.0030
  24 C2  :3d2-   0.0049   0.0156  -0.0021  -0.0197  -0.0331  -0.0121
  25 C2  :3d1-   0.0005  -0.0014  -0.0234  -0.0001   0.0003  -0.0004
  26 C2  :3d0   -0.0107   0.0096   0.0002  -0.0038   0.0123  -0.0233
  27 C2  :3d1+   0.0002  -0.0020  -0.0135   0.0006  -0.0005  -0.0001
  28 C2  :3d2+  -0.0113  -0.0209   0.0023  -0.0050   0.0049   0.0171
  29 C3  :1s    -0.1309   0.0331  -0.0048   0.0832  -0.0057  -0.0123
  30 C3  :1s     0.1100  -0.0293   0.0056   0.0169  -0.0035   0.0805
  31 C3  :1s     2.4066  -0.5521   0.0749  -2.1992  -0.3860  -0.3286
  32 C3  :2px    0.0717  -0.0959   0.0189   0.1518   0.0331  -0.1475
  33 C3  :2py    0.1145   0.2560  -0.0315   0.0884   0.2177   0.1740
  34 C3  :2pz    0.0054  -0.0453  -0.3226   0.0084  -0.0254  -0.0025
  35 C3  :2px    0.3243  -0.4447   0.1062   1.9533  -0.1009  -0.1841
  36 C3  :2py    0.3426   1.2690  -0.1914   0.6664   1.1059  -0.2248
  37 C3  :2pz    0.0327  -0.2173  -1.5546   0.0358  -0.0260  -0.0034
  38 C3  :3d2-  -0.0008   0.0038   0.0008   0.0218   0.0003  -0.0239
  39 C3  :3d1-   0.0011   0.0016  -0.0119  -0.0013  -0.0002  -0.0049
  40 C3  :3d0    0.0003   0.0156   0.0014  -0.0179  -0.0080   0.0001
  41 C3  :3d1+  -0.0006  -0.0006   0.0163   0.0007   0.0006   0.0027
  42 C3  :3d2+   0.0091   0.0147  -0.0006   0.0038  -0.0388  -0.0504
  43 H   :1s     0.0046   0.0403  -0.0720  -0.0704  -0.0464  -0.0464
  44 H   :1s    -0.8827   0.8694  -1.6923  -0.1936   0.2149   0.1323
  45 H   :1s    -0.0017   0.0445   0.0665  -0.0642  -0.0459  -0.0205
  46 H   :1s    -0.9883   1.0868   1.5301  -0.2260   0.2174   0.1239
  47 H   :1s    -0.0390  -0.0874   0.0054   0.0089   0.1034   0.2211
  48 H   :1s    -1.4268  -1.4670   0.0601   0.1923  -1.1199  -0.0342
  49 H   :1s     0.0162   0.0431  -0.0024   0.0577  -0.2811   0.4090
  50 H   :1s    -0.2602  -0.7968   0.0495  -0.3222   2.0041  -0.4437
  51 H   :1s     0.0766   0.0182   0.0009   0.0004  -0.0229   0.0098
  52 H   :1s     0.7014  -0.7706   0.1876   0.7849  -0.5905   0.0867

  Total CPU  time used in SIRIUS :   0.21 seconds
  Total wall time used in SIRIUS :   0.56 seconds

 
     Date and time (Linux)  : Sat Apr 13 14:16:03 2024
     Host name              : node100                                 


                     .---------------------------------------.
                     | End of Wave Function Section (SIRIUS) |
                     `---------------------------------------'


 Center of mass dipole origin  :  -14.507921    0.323012   -0.004373

 Center of mass gauge origin   :  -14.507921    0.323012   -0.004373


                 .------------------------------------------------.
                 | Starting in Static Property Section (ABACUS) - |
                 `------------------------------------------------'


 
     Date and time (Linux)  : Sat Apr 13 14:16:03 2024
     Host name              : node100                                 
  Total CPU  time used in TWOINT:   0.34 seconds
  Total wall time used in TWOINT:   0.35 seconds

 Largest deviation from tra-rot symmetry is in gradient element  6:  2.64E-06


   ***************************************************************************
   ************************ FINAL RESULTS from ABACUS ************************
   ***************************************************************************


 
     Date and time (Linux)  : Sat Apr 13 14:16:03 2024
     Host name              : node100                                 


                             Molecular geometry (au)
                             -----------------------

 C1       -16.9202108807            0.6047690518           -0.0083903840
 C2       -14.7297726374           -0.5131173347           -0.0069541921
 C3       -12.2409466390            0.8130168708           -0.0009826576
 H        -11.0919553605            0.1654077277           -1.5935871439
 H        -11.2206457096            0.3942913560            1.7481289464
 H        -12.4600036915            2.8645035520           -0.1527087682
 H        -18.7140711994            1.5229302841           -0.0078423634
 H        -14.6811121897           -2.5656433654            0.0223554601





                        Molecular wave function and energy
                        ----------------------------------

     Spatial symmetry   1 ( A   )
     Spin multiplicity  1
     2 * M_S            0
     State number       1
     Total charge       1

     Total energy       -116.1370586105 au (Hartrees)
                         -3160.25012286 eV
                           -304917.8004 kJ/mol
                            -72877.1033 kcal/mol


                   Scalar Breit-Pauli relativistic corrections
                   -------------------------------------------

     Darwin correction:                          0.1784837821 au
     Mass-velocity correction:                  -0.2223704776 au

     Total relativistic correction:             -0.0438866954 au ( 0.0378%)
     Non-relativistic + relativistic energy:  -116.1809453059 au



      (Note that these corrections are NOT included in the results below.)


                             Molecular gradient (au)
                             -----------------------

 C1        -0.0430927188            0.0261789192            0.0002246799
 C2         0.0424085322           -0.0096443545           -0.0016778755
 C3        -0.0224878904           -0.0254371183            0.0019917602
 H          0.0071308918            0.0005201945           -0.0055194720
 H          0.0066466124            0.0016351642            0.0055731253
 H         -0.0019148843            0.0097065662           -0.0010635471
 H          0.0030720670           -0.0017078042            0.0001867448
 H          0.0082373902           -0.0012515671            0.0002845845





                                  Dipole moment
                                  -------------

                 au               Debye          C m (/(10**-30)
              0.973629           2.474717           8.254768


                             Dipole moment components
                             ------------------------

                 au               Debye          C m (/(10**-30)

      x     -0.97167934        -2.46976238        -8.23824052
      y     -0.06100183        -0.15505117        -0.51719502
      z      0.00842645         0.02141789         0.07144239


   Units:   1 a.u. =   2.54175 Debye 
            1 a.u. =   8.47835 (10**-30) C m (SI)




   Interatomic separations (in Angstrom):
   --------------------------------------

            C1          C2          C3          H           H           H     
            ------      ------      ------      ------      ------      ------
 C1    :    0.000000
 C2    :    1.301356    0.000000
 C3    :    2.478614    1.492329    0.000000
 H     :    3.204667    2.130654    1.094254    0.000000
 H     :    3.158027    2.131059    1.094225    1.773811    0.000000
 H     :    2.646980    2.154825    1.094720    1.773557    1.775004    0.000000
 H     :    1.066388    2.367743    3.445970    4.181977    4.116328    3.385666
 H     :    2.054000    1.086566    2.205488    2.535193    2.576954    3.105980

            H           H     
            ------      ------
 H     :    0.000000
 H     :    3.039067    0.000000


  Max    interatomic separation is    4.1820 Angstrom (    7.9028 Bohr)
  between atoms    7 and    4, "H     " and "H     ".

  Min HX interatomic separation is    1.0664 Angstrom (    2.0152 Bohr)

  Min YX interatomic separation is    1.3014 Angstrom (    2.4592 Bohr)


  Bond distances (Angstrom):
  --------------------------

                  atom 1     atom 2       distance
                  ------     ------       --------
  bond distance:  C2         C1           1.301356
  bond distance:  C3         C2           1.492329
  bond distance:  H          C3           1.094254
  bond distance:  H          C3           1.094225
  bond distance:  H          C3           1.094720
  bond distance:  H          C1           1.066388
  bond distance:  H          C2           1.086566


  Bond angles (degrees):
  ----------------------

                  atom 1     atom 2     atom 3         angle
                  ------     ------     ------         -----
  bond angle:     C2         C1         H            179.917
  bond angle:     C1         C2         C3           124.912
  bond angle:     C1         C2         H            118.393
  bond angle:     C3         C2         H            116.687
  bond angle:     C2         C3         H            109.967
  bond angle:     C2         C3         H            110.001
  bond angle:     C2         C3         H            111.884
  bond angle:     H          C3         H            108.294
  bond angle:     H          C3         H            108.235
  bond angle:     H          C3         H            108.367


  Total CPU  time used in ABACUS:   0.36 seconds
  Total wall time used in ABACUS:   0.37 seconds


                   .-------------------------------------------.
                   | End of Static Property Section (ABACUS) - |
                   `-------------------------------------------'


Building simple model Hessian by Roland Lindh ...

Initial model Hessian in internal coordinates has been calculated


           :::::::::::::::::::::::::::::::::::::::::::::::::::::::::::
           ::::::::::::::: Optimization Control Center :::::::::::::::
           :::::::::::::::::::::::::::::::::::::::::::::::::::::::::::



                                Next geometry (au)
                                ------------------

 C1       -16.8813728399            0.5722892111           -0.0049595596
 C2       -14.7337220140           -0.5075336217            0.0395341724
 C3       -12.2294494535            0.8590552760            0.0011930898
 H        -11.1501884754            0.1619677913           -1.5998316187
 H        -11.2261765926            0.3817676782            1.7274061505
 H        -12.4126908167            2.8939724425           -0.1371373145
 H        -18.6860698275            1.4844226288           -0.0421182088
 H        -14.7390482884           -2.5597832638            0.0159321861





   Interatomic separations (in Angstrom):
   --------------------------------------

            C1          C2          C3          H           H           H     
            ------      ------      ------      ------      ------      ------
 C1    :    0.000000
 C2    :    1.272272    0.000000
 C3    :    2.466367    1.509817    0.000000
 H     :    3.155532    2.115218    1.086299    0.000000
 H     :    3.131488    2.112911    1.086319    1.764994    0.000000
 H     :    2.665751    2.181125    1.083664    1.770747    1.770611    0.000000
 H     :    1.070234    2.342505    3.432762    4.131816    4.098889    3.402866
 H     :    2.008077    1.086079    2.244283    2.532241    2.588219    3.138642

            H           H     
            ------      ------
 H     :    0.000000
 H     :    2.990575    0.000000


  Max    interatomic separation is    4.1318 Angstrom (    7.8080 Bohr)
  between atoms    7 and    4, "H     " and "H     ".

  Min HX interatomic separation is    1.0702 Angstrom (    2.0224 Bohr)

  Min YX interatomic separation is    1.2723 Angstrom (    2.4042 Bohr)


  Bond distances (Angstrom):
  --------------------------

                  atom 1     atom 2       distance
                  ------     ------       --------
  bond distance:  C2         C1           1.272272
  bond distance:  C3         C2           1.509817
  bond distance:  H          C3           1.086299
  bond distance:  H          C3           1.086319
  bond distance:  H          C3           1.083664
  bond distance:  H          C1           1.070234
  bond distance:  H          C2           1.086079


  Bond angles (degrees):
  ----------------------

                  atom 1     atom 2     atom 3         angle
                  ------     ------     ------         -----
  bond angle:     C2         C1         H            179.880
  bond angle:     C1         C2         C3           124.658
  bond angle:     C1         C2         H            116.524
  bond angle:     C3         C2         H            118.755
  bond angle:     C2         C3         H            108.017
  bond angle:     C2         C3         H            107.837
  bond angle:     C2         C3         H            113.474
  bond angle:     H          C3         H            108.659
  bond angle:     H          C3         H            109.378
  bond angle:     H          C3         H            109.364




                             Optimization information
                             ------------------------

 Iteration number               :       0
 End of optimization            :       F 
 Energy at this geometry is     :    -116.137058610458
 Norm of gradient               :       0.077031179433
 Norm of step                   :       0.205788697233
 Updated trust radius           :       0.500000000000
 Total effective Hessian index  :       0




 **************************************************************************************
 ****************** Output of molecule and basis set info suppressed ******************
 **************************************************************************************



                     .---------------------------------------.
                     | Starting in Integral Section (HERMIT) |
                     `---------------------------------------'



 ***************************************************************************************
 ****************** Output from **INTEGRALS input processing (HERMIT) ******************
 ***************************************************************************************


 - Using defaults, no **INTEGRALS input found

 Default print level:       -1

 Calculation of one- and two-electron Hamiltonian integrals.

 Center of mass  (bohr):    -14.495496227077      0.328139623571      0.009580708441
 Operator center (bohr):      0.000000000000      0.000000000000      0.000000000000
 Gauge origin    (bohr):      0.000000000000      0.000000000000      0.000000000000
 Dipole origin   (bohr):      0.000000000000      0.000000000000      0.000000000000


                      Nuclear contribution to dipole moments
                      --------------------------------------

                 au               Debye          C m (/(10**-30)

      x   -331.28143984      -842.03337654     -2808.72101371
      y      7.90521247        20.09304461        67.02318244
      z      0.17885741         0.45461016         1.51641627


  Total CPU  time used in HERMIT:   0.02 seconds
  Total wall time used in HERMIT:   0.02 seconds


                        .----------------------------------.
                        | End of Integral Section (HERMIT) |
                        `----------------------------------'



                   .--------------------------------------------.
                   | Starting in Wave Function Section (SIRIUS) |
                   `--------------------------------------------'

* Read MO coefficients from SIRIUS.RST with label "NEWORB  " and header info: 13Apr24  FOCKDIIS

 **********************************************************************
 *SIRIUS* a direct, restricted step, second order MCSCF program       *
 **********************************************************************

 (Wave function specification suppressed here, see output above for initial geometry.)


 ***********************************************
 ***** DIIS acceleration of SCF iterations *****
 ***********************************************

 C1-DIIS algorithm; max error vectors =    8

 Iter      Total energy        Error norm    Delta(E)  DIIS dim.
 -----------------------------------------------------------------------------

Calculating AOSUPINT

---> (Re)generating AOTWOINT

 Threshold for neglecting two-electron integrals:  1.00D-12
 HERMIT - Number of two-electron integrals written:      931896 ( 98.1% )
 HERMIT - Megabytes written:                             10.676

  Total CPU  time used in TWOINT:   0.12 seconds
  Total wall time used in TWOINT:   0.12 seconds
  Time used in TWOINT     is       0.12 seconds
  CPU  time used in MAKE_AOTWOINT is   0.12 seconds
  WALL time used in MAKE_AOTWOINT is   0.12 seconds
     (Precalculated AO two-electron integrals are transformed to P-supermatrix elements.
      Threshold for discarding integrals :  1.00D-12 )

@  1    -116.138851704        1.04132D-01   -1.79D-03    1
      Virial theorem: -V/T =      2.000011
@    MULPOP   C1      0.15; C2     -0.18; C3     -0.57; H       0.28; H       0.28; H       0.25; H       0.42; H       0.36; 
 -----------------------------------------------------------------------------
@  2    -116.139845048        2.82924D-02   -9.93D-04    2
      Virial theorem: -V/T =      1.999503
@    MULPOP   C1      0.15; C2     -0.20; C3     -0.56; H       0.28; H       0.28; H       0.26; H       0.42; H       0.37; 
 -----------------------------------------------------------------------------
@  3    -116.139946760        9.14291D-03   -1.02D-04    3
      Virial theorem: -V/T =      1.999665
@    MULPOP   C1      0.16; C2     -0.20; C3     -0.56; H       0.28; H       0.28; H       0.26; H       0.42; H       0.37; 
 -----------------------------------------------------------------------------
@  4    -116.139964797        3.50944D-03   -1.80D-05    4
      Virial theorem: -V/T =      1.999631
@    MULPOP   C1      0.16; C2     -0.21; C3     -0.56; H       0.28; H       0.28; H       0.26; H       0.42; H       0.37; 
 -----------------------------------------------------------------------------
@  5    -116.139968082        1.27453D-03   -3.29D-06    5
      Virial theorem: -V/T =      1.999643
@    MULPOP   C1      0.16; C2     -0.21; C3     -0.56; H       0.28; H       0.28; H       0.26; H       0.42; H       0.37; 
 -----------------------------------------------------------------------------
@  6    -116.139968685        5.91054D-04   -6.03D-07    6
      Virial theorem: -V/T =      1.999646
@    MULPOP   C1      0.16; C2     -0.21; C3     -0.56; H       0.28; H       0.28; H       0.26; H       0.42; H       0.37; 
 -----------------------------------------------------------------------------
@  7    -116.139968788        2.97616D-04   -1.03D-07    7
      Virial theorem: -V/T =      1.999646
@    MULPOP   C1      0.16; C2     -0.21; C3     -0.56; H       0.28; H       0.28; H       0.26; H       0.42; H       0.37; 
 -----------------------------------------------------------------------------
@  8    -116.139968837        1.92307D-04   -4.87D-08    8
      Virial theorem: -V/T =      1.999646
@    MULPOP   C1      0.16; C2     -0.21; C3     -0.56; H       0.28; H       0.28; H       0.26; H       0.42; H       0.37; 
 -----------------------------------------------------------------------------
@  9    -116.139968865        1.05668D-04   -2.83D-08    8
      Virial theorem: -V/T =      1.999647
@    MULPOP   C1      0.16; C2     -0.21; C3     -0.56; H       0.28; H       0.28; H       0.26; H       0.42; H       0.37; 
 -----------------------------------------------------------------------------
@ 10    -116.139968874        3.46625D-05   -9.08D-09    8
      Virial theorem: -V/T =      1.999646
@    MULPOP   C1      0.16; C2     -0.21; C3     -0.56; H       0.28; H       0.28; H       0.26; H       0.42; H       0.37; 
 -----------------------------------------------------------------------------
@ 11    -116.139968875        8.12148D-06   -6.97D-10    8

@ *** DIIS converged in  11 iterations !
@     Converged SCF energy, gradient:   -116.139968874734    8.12D-06
    - total time used in SIRFCK :              0.00 seconds


 *** SCF orbital energy analysis ***

 Only the 20 lowest virtual orbital energies printed in each symmetry.

 Number of electrons        :   22
 Closed shell orbitals      :   11

 Sym       Hartree-Fock orbital energies

1 A     -11.60729879   -11.53561305   -11.45361982    -1.36613063    -1.18331767
         -1.04377415    -0.93051173    -0.81554077    -0.80387362    -0.76197694
         -0.67835675    -0.20491433    -0.08071370     0.02487255     0.06642784
          0.08679290     0.12908012     0.13113746     0.19053104     0.33127533
          0.39849428     0.46401465     0.54857542     0.57508502     0.60010955
          0.62682763     0.63931647     0.73912380     0.76593493     0.78387088
          0.89627604

    E(LUMO) :    -0.20491433 au (symmetry 1)
  - E(HOMO) :    -0.67835675 au (symmetry 1)
  ------------------------------------------
    gap     :     0.47344242 au

 --- Writing SIRIFC interface file

--------------------------------------------------------------------------------


     .--------------------------------------------------.
     | HF-SCF KT IPs [a.u. & eV] from Koopmans' theorem |
     `--------------------------------------------------'


     HF-SCF KT symmetry 1 ( A  ) in point group C1  -- 11 principal poles with pole strength 1

   ============  ============  ============  ============  ============
      11.607299     11.535613     11.453620      1.366131      1.183318
     315.850667    313.899999    311.668850     37.174306     32.199712
   ============  ============  ============  ============  ============

   ============  ============  ============  ============  ============
       1.043774      0.930512      0.815541      0.803874      0.761977
      28.402539     25.320512     22.191993     21.874514     20.734447
   ============  ============  ============  ============  ============

   ============
       0.678357
      18.459026
   ============

@ Summary of HF-SCF KT ionization potentials [eV]:

@ Symmetry 1 (A  ) :   315.851     313.900     311.669      37.174      32.200
@                       28.403      25.321      22.192      21.875      20.734
@                       18.459

  === End of HF-SCF KT output ===
--------------------------------------------------------------------------------


 CPU and wall time for SCF :       0.189       0.498


                       .-----------------------------------.
                       | --- Final results from SIRIUS --- |
                       `-----------------------------------'


@    Spin multiplicity:           1
@    Spatial symmetry:            1 ( irrep  A   in C1  )
@    Total charge of molecule:    1

@    Final HF energy:            -116.139968874734                 
@    Nuclear repulsion:            64.996930354455
@    Electronic energy:          -181.136899229190

@    Final gradient norm:           0.000008121483

 
     Date and time (Linux)  : Sat Apr 13 14:16:04 2024
     Host name              : node100                                 

  Total CPU  time used in SIRIUS :   0.20 seconds
  Total wall time used in SIRIUS :   0.53 seconds

 
     Date and time (Linux)  : Sat Apr 13 14:16:04 2024
     Host name              : node100                                 


                     .---------------------------------------.
                     | End of Wave Function Section (SIRIUS) |
                     `---------------------------------------'

 Trust radius increased due to good ratio.
 Updated trust radius   0.50000

 Center of mass dipole origin  :  -14.495496    0.328140    0.009581

 Center of mass gauge origin   :  -14.495496    0.328140    0.009581


                 .------------------------------------------------.
                 | Starting in Static Property Section (ABACUS) - |
                 `------------------------------------------------'


 
     Date and time (Linux)  : Sat Apr 13 14:16:04 2024
     Host name              : node100                                 

 Largest deviation from tra-rot symmetry is in gradient element  9:  9.70E-07


   ***************************************************************************
   ************************ FINAL RESULTS from ABACUS ************************
   ***************************************************************************


 
     Date and time (Linux)  : Sat Apr 13 14:16:04 2024
     Host name              : node100                                 
  Total CPU  time used in ABACUS:   0.36 seconds
  Total wall time used in ABACUS:   0.36 seconds


                   .-------------------------------------------.
                   | End of Static Property Section (ABACUS) - |
                   `-------------------------------------------'



           :::::::::::::::::::::::::::::::::::::::::::::::::::::::::::
           ::::::::::::::: Optimization Control Center :::::::::::::::
           :::::::::::::::::::::::::::::::::::::::::::::::::::::::::::



                                Next geometry (au)
                                ------------------

 C1       -16.8626140555            0.5545201912           -0.0522522676
 C2       -14.7374026692           -0.5016076576           -0.1359614406
 C3       -12.2017983402            0.8823770705           -0.0269777316
 H        -11.0950216250            0.2178734307           -1.6076357438
 H        -11.2921028185            0.3254793857            1.7179297765
 H        -12.3986445047            2.9041511215           -0.1002383869
 H        -18.6760963644            1.4601777661            0.0236739591
 H        -14.7950379304           -2.5568131658            0.1814807320





   Interatomic separations (in Angstrom):
   --------------------------------------

            C1          C2          C3          H           H           H     
            ------      ------      ------      ------      ------      ------
 C1    :    0.000000
 C2    :    1.256608    0.000000
 C3    :    2.472528    1.529732    0.000000
 H     :    3.166128    2.113427    1.079962    0.000000
 H     :    3.095420    2.116119    1.082214    1.763820    0.000000
 H     :    2.669598    2.186358    1.075635    1.769998    1.769361    0.000000
 H     :    1.073421    2.330026    3.439772    4.155884    4.053698    3.409266
 H     :    1.980700    1.100887    2.281998    2.624097    2.534468    3.159334

            H           H     
            ------      ------
 H     :    0.000000
 H     :    2.956947    0.000000


  Max    interatomic separation is    4.1559 Angstrom (    7.8535 Bohr)
  between atoms    7 and    4, "H     " and "H     ".

  Min HX interatomic separation is    1.0734 Angstrom (    2.0285 Bohr)

  Min YX interatomic separation is    1.2566 Angstrom (    2.3746 Bohr)


  Bond distances (Angstrom):
  --------------------------

                  atom 1     atom 2       distance
                  ------     ------       --------
  bond distance:  C2         C1           1.256608
  bond distance:  C3         C2           1.529732
  bond distance:  H          C3           1.079962
  bond distance:  H          C3           1.082214
  bond distance:  H          C3           1.075635
  bond distance:  H          C1           1.073421
  bond distance:  H          C2           1.100887


  Bond angles (degrees):
  ----------------------

                  atom 1     atom 2     atom 3         angle
                  ------     ------     ------         -----
  bond angle:     C2         C1         H            179.832
  bond angle:     C1         C2         C3           124.802
  bond angle:     C1         C2         H            114.154
  bond angle:     C3         C2         H            119.440
  bond angle:     C2         C3         H            106.894
  bond angle:     C2         C3         H            106.976
  bond angle:     C2         C3         H            112.948
  bond angle:     H          C3         H            109.325
  bond angle:     H          C3         H            110.393
  bond angle:     H          C3         H            110.162




                             Optimization information
                             ------------------------

 Iteration number               :       1
 End of optimization            :       F 
 Energy at this geometry is     :    -116.139968874734
 Energy change from last geom.  :      -0.002910264277
 Predicted change               :      -0.002482618572
 Ratio, actual/predicted change :       1.172255903611
 Norm of gradient               :       0.022644372553
 Norm of step                   :       0.442828701094
 Updated trust radius           :       0.500000000000
 Total effective Hessian index  :       0




 **************************************************************************************
 ****************** Output of molecule and basis set info suppressed ******************
 **************************************************************************************



                     .---------------------------------------.
                     | Starting in Integral Section (HERMIT) |
                     `---------------------------------------'



 ***************************************************************************************
 ****************** Output from **INTEGRALS input processing (HERMIT) ******************
 ***************************************************************************************


 - Using defaults, no **INTEGRALS input found

 Default print level:       -1

 Calculation of one- and two-electron Hamiltonian integrals.

 Center of mass  (bohr):    -14.484051360513      0.331214160497     -0.057637752237
 Operator center (bohr):      0.000000000000      0.000000000000      0.000000000000
 Gauge origin    (bohr):      0.000000000000      0.000000000000      0.000000000000
 Dipole origin   (bohr):      0.000000000000      0.000000000000      0.000000000000


                      Nuclear contribution to dipole moments
                      --------------------------------------

                 au               Debye          C m (/(10**-30)

      x   -331.06779363      -841.49034207     -2806.90964570
      y      7.96260616        20.23892481        67.50978644
      z     -1.07593830        -2.73476220        -9.12218480


  Total CPU  time used in HERMIT:   0.02 seconds
  Total wall time used in HERMIT:   0.02 seconds


                        .----------------------------------.
                        | End of Integral Section (HERMIT) |
                        `----------------------------------'



                   .--------------------------------------------.
                   | Starting in Wave Function Section (SIRIUS) |
                   `--------------------------------------------'

* Read MO coefficients from SIRIUS.RST with label "NEWORB  " and header info: 13Apr24  FOCKDIIS

 **********************************************************************
 *SIRIUS* a direct, restricted step, second order MCSCF program       *
 **********************************************************************

 (Wave function specification suppressed here, see output above for initial geometry.)


 ***********************************************
 ***** DIIS acceleration of SCF iterations *****
 ***********************************************

 C1-DIIS algorithm; max error vectors =    8

 Iter      Total energy        Error norm    Delta(E)  DIIS dim.
 -----------------------------------------------------------------------------

Calculating AOSUPINT

---> (Re)generating AOTWOINT

 Threshold for neglecting two-electron integrals:  1.00D-12
 HERMIT - Number of two-electron integrals written:      932071 ( 98.1% )
 HERMIT - Megabytes written:                             10.676

  Total CPU  time used in TWOINT:   0.12 seconds
  Total wall time used in TWOINT:   0.12 seconds
  Time used in TWOINT     is       0.12 seconds
  CPU  time used in MAKE_AOTWOINT is   0.12 seconds
  WALL time used in MAKE_AOTWOINT is   0.12 seconds
     (Precalculated AO two-electron integrals are transformed to P-supermatrix elements.
      Threshold for discarding integrals :  1.00D-12 )

@  1    -116.132993370        2.32304D-01    6.98D-03    1
      Virial theorem: -V/T =      1.999365
@    MULPOP   C1      0.16; C2     -0.22; C3     -0.55; H       0.28; H       0.28; H       0.26; H       0.42; H       0.37; 
 -----------------------------------------------------------------------------
@  2    -116.137507351        5.82945D-02   -4.51D-03    2
      Virial theorem: -V/T =      1.999304
@    MULPOP   C1      0.16; C2     -0.22; C3     -0.55; H       0.28; H       0.28; H       0.26; H       0.42; H       0.37; 
 -----------------------------------------------------------------------------
@  3    -116.138008674        2.09630D-02   -5.01D-04    3
      Virial theorem: -V/T =      1.999360
@    MULPOP   C1      0.17; C2     -0.24; C3     -0.54; H       0.28; H       0.28; H       0.26; H       0.42; H       0.37; 
 -----------------------------------------------------------------------------
@  4    -116.138118919        1.14819D-02   -1.10D-04    4
      Virial theorem: -V/T =      1.999367
@    MULPOP   C1      0.17; C2     -0.23; C3     -0.54; H       0.28; H       0.28; H       0.26; H       0.42; H       0.37; 
 -----------------------------------------------------------------------------
@  5    -116.138167341        7.70280D-03   -4.84D-05    5
[...]
      Virial theorem: -V/T =      1.999538
@    MULPOP   C1      0.16; C2     -0.23; C3     -0.54; H       0.28; H       0.28; H       0.26; H       0.42; H       0.36; 
 -----------------------------------------------------------------------------
@  4    -116.140579243        8.78072D-05   -1.01D-08    4
      Virial theorem: -V/T =      1.999538
@    MULPOP   C1      0.16; C2     -0.23; C3     -0.54; H       0.28; H       0.28; H       0.26; H       0.42; H       0.36; 
 -----------------------------------------------------------------------------
@  5    -116.140579247        5.55998D-05   -3.36D-09    5
      Virial theorem: -V/T =      1.999538
@    MULPOP   C1      0.16; C2     -0.23; C3     -0.54; H       0.28; H       0.28; H       0.26; H       0.42; H       0.36; 
 -----------------------------------------------------------------------------
@  6    -116.140579249        3.15259D-05   -2.06D-09    6
      Virial theorem: -V/T =      1.999538
@    MULPOP   C1      0.16; C2     -0.23; C3     -0.54; H       0.28; H       0.28; H       0.26; H       0.42; H       0.36; 
 -----------------------------------------------------------------------------
@  7    -116.140579250        1.34544D-05   -8.21D-10    7
      Virial theorem: -V/T =      1.999538
@    MULPOP   C1      0.16; C2     -0.23; C3     -0.54; H       0.28; H       0.28; H       0.26; H       0.42; H       0.36; 
 -----------------------------------------------------------------------------
@  8    -116.140579250        4.58654D-06   -1.22D-10    8

@ *** DIIS converged in   8 iterations !
@     Converged SCF energy, gradient:   -116.140579249750    4.59D-06
    - total time used in SIRFCK :              0.00 seconds


 *** SCF orbital energy analysis ***

 Only the 20 lowest virtual orbital energies printed in each symmetry.

 Number of electrons        :   22
 Closed shell orbitals      :   11

 Sym       Hartree-Fock orbital energies

1 A     -11.60569167   -11.53398245   -11.45390891    -1.36569683    -1.18525706
         -1.04267196    -0.92466594    -0.81353465    -0.80424062    -0.76438916
         -0.68135599    -0.20356020    -0.07737876     0.02549310     0.06359364
          0.08773386     0.13142633     0.13183449     0.18941986     0.33593506
          0.39546505     0.46329073     0.54913065     0.56490116     0.59984537
          0.63018457     0.64281021     0.74690512     0.75990133     0.78620675
          0.89234423

    E(LUMO) :    -0.20356020 au (symmetry 1)
  - E(HOMO) :    -0.68135599 au (symmetry 1)
  ------------------------------------------
    gap     :     0.47779579 au

 --- Writing SIRIFC interface file

--------------------------------------------------------------------------------


     .--------------------------------------------------.
     | HF-SCF KT IPs [a.u. & eV] from Koopmans' theorem |
     `--------------------------------------------------'


     HF-SCF KT symmetry 1 ( A  ) in point group C1  -- 11 principal poles with pole strength 1

   ============  ============  ============  ============  ============
      11.605692     11.533982     11.453909      1.365697      1.185257
     315.806935    313.855628    311.676716     37.162501     32.252485
   ============  ============  ============  ============  ============

   ============  ============  ============  ============  ============
       1.042672      0.924666      0.813535      0.804241      0.764389
      28.372547     25.161440     22.137404     21.884500     20.800087
   ============  ============  ============  ============  ============

   ============
       0.681356
      18.540640
   ============

@ Summary of HF-SCF KT ionization potentials [eV]:

@ Symmetry 1 (A  ) :   315.807     313.856     311.677      37.163      32.252
@                       28.373      25.161      22.137      21.885      20.800
@                       18.541

  === End of HF-SCF KT output ===
--------------------------------------------------------------------------------


 CPU and wall time for SCF :       0.177       0.381


                       .-----------------------------------.
                       | --- Final results from SIRIUS --- |
                       `-----------------------------------'


@    Spin multiplicity:           1
@    Spatial symmetry:            1 ( irrep  A   in C1  )
@    Total charge of molecule:    1

@    Final HF energy:            -116.140579249750                 
@    Nuclear repulsion:            64.804617029503
@    Electronic energy:          -180.945196279253

@    Final gradient norm:           0.000004586538

 
     Date and time (Linux)  : Sat Apr 13 14:16:15 2024
     Host name              : node100                                 

  Total CPU  time used in SIRIUS :   0.18 seconds
  Total wall time used in SIRIUS :   0.41 seconds

 
     Date and time (Linux)  : Sat Apr 13 14:16:15 2024
     Host name              : node100                                 


                     .---------------------------------------.
                     | End of Wave Function Section (SIRIUS) |
                     `---------------------------------------'

 Trust radius increased due to good ratio.
 Updated trust radius   0.16042

 Center of mass dipole origin  :  -14.484787    0.350543   -0.001676

 Center of mass gauge origin   :  -14.484787    0.350543   -0.001676


                 .------------------------------------------------.
                 | Starting in Static Property Section (ABACUS) - |
                 `------------------------------------------------'


 
     Date and time (Linux)  : Sat Apr 13 14:16:15 2024
     Host name              : node100                                 

 Largest deviation from tra-rot symmetry is in gradient element  3:  5.52E-07


   ***************************************************************************
   ************************ FINAL RESULTS from ABACUS ************************
   ***************************************************************************


 
     Date and time (Linux)  : Sat Apr 13 14:16:15 2024
     Host name              : node100                                 
  Total CPU  time used in ABACUS:   0.36 seconds
  Total wall time used in ABACUS:   0.36 seconds


                   .-------------------------------------------.
                   | End of Static Property Section (ABACUS) - |
                   `-------------------------------------------'



            *********************************************************
            *** Output from geometry convergence control (MINEND) ***
            *********************************************************


 Energy converged       yes 
 Gradient converged     yes 
 Step converged         no  
 Conditions fullfilled   2
 Required conditions     2
 Totally sym. index      0
 Hessian index           0
 End of optimization    yes 


           :::::::::::::::::::::::::::::::::::::::::::::::::::::::::::
           ::::::::::::::: Optimization Control Center :::::::::::::::
           :::::::::::::::::::::::::::::::::::::::::::::::::::::::::::



                               Final geometry (au)
                               -------------------

 C1       -16.9051359052            0.5695166233           -0.0308620949
 C2       -14.7352702674           -0.4321131784            0.0264289469
 C3       -12.1641572534            0.8700511787           -0.0018262748
 H        -11.1440269449            0.1889616225           -1.6377915628
 H        -11.1707624134            0.3143749130            1.6967735216
 H        -12.3459741457            2.8984573875           -0.0795693173
 H        -18.7639719576            1.3644969017           -0.0782625316
 H        -14.8294194202           -2.4875873060            0.1051282101





                             Optimization information
                             ------------------------

 Iteration number               :      12
 End of optimization            :       T 
 Energy at this geometry is     :    -116.140579249750
 Energy change from last geom.  :      -0.000000065558
 Predicted change               :      -0.000000046703
 Ratio, actual/predicted change :       1.403731753210
 Norm of gradient               :       0.000096206390
 Norm of step                   :       0.002528215683
 Updated trust radius           :       0.160418049105
 Total effective Hessian index  :       0




          <<<<<<<<<<<<<<<<<<<<<<<<<<<<<<<<<<<<<<<<<<<<<<<<<<<<<<<<<<<<<<
          <<<<<<<<<<<<<<<<<<<<  End of Optimization <<<<<<<<<<<<<<<<<<<<
          <<<<<<<<<<<<<<<<<<<<<<<<<<<<<<<<<<<<<<<<<<<<<<<<<<<<<<<<<<<<<<



                              Final geometry (bohr)
                              ---------------------

 C1       -16.9051359052            0.5695166233           -0.0308620949
 C2       -14.7352702674           -0.4321131784            0.0264289469
 C3       -12.1641572534            0.8700511787           -0.0018262748
 H        -11.1440269449            0.1889616225           -1.6377915628
 H        -11.1707624134            0.3143749130            1.6967735216
 H        -12.3459741457            2.8984573875           -0.0795693173
 H        -18.7639719576            1.3644969017           -0.0782625316
 H        -14.8294194202           -2.4875873060            0.1051282101





                      Final geometry (xyz format; angstrom)
                      -------------------------------------

8

C1      -8.9458126665            0.3013752182           -0.0163315173
C2      -7.7975692205           -0.2286644465            0.0139855964
C3      -6.4369948071            0.4604112560           -0.0009664230
H       -5.8971650958            0.0999941844           -0.8666819711
H       -5.9113128964            0.1663600396            0.8978938795
H       -6.5332081630            1.5337975959           -0.0421062694
H       -9.9294663440            0.7220606646           -0.0414147482
H       -7.8473908066           -1.3163745122            0.0556314530



@ Iter     Energy        Change       GradNorm  Index   StepLen    TrustRad #Rej
@ ------------------------------------------------------------------------------
@   0     -116.137059     0.000000     0.077031    0    0.205789*   0.500000   0 
@   1     -116.139969    -0.002910     0.022644    0    0.160418*   0.500000   1 
@   2     -116.140207    -0.000238     0.012542    0    0.102784*   0.160418   0 
@   3     -116.140468    -0.000262     0.006534    0    0.034338*   0.160418   0 
@   4     -116.140508    -0.000040     0.001797    0    0.064549*   0.160418   0 
@   5     -116.140532    -0.000024     0.005543    0    0.019808*   0.160418   0 
@   6     -116.140548    -0.000015     0.003898    0    0.063761*   0.160418   0 
@   7     -116.140574    -0.000026     0.001019    0    0.010352*   0.160418   0 
@   8     -116.140577    -0.000003     0.000628    0    0.013399*   0.160418   0 
@   9     -116.140579    -0.000002     0.000370    0    0.010354*   0.160418   0 
@  10     -116.140579    -0.000000     0.000242    0    0.008345*   0.160418   0 
@  11     -116.140579    -0.000000     0.000126    0    0.004972*   0.160418   0 
@  12     -116.140579    -0.000000     0.000096    0    0.002528*   0.160418   0 

@  *) Newton step taken.


   Interatomic separations (in Angstrom):
   --------------------------------------

            C1          C2          C3          H           H           H     
            ------      ------      ------      ------      ------      ------
 C1    :    0.000000
 C2    :    1.265039    0.000000
 C3    :    2.513900    1.525192    0.000000
 H     :    3.171420    2.120172    1.082026    0.000000
 H     :    3.172101    2.120213    1.082015    1.765880    0.000000
 H     :    2.709278    2.169799    1.078475    1.772080    1.772072    0.000000
 H     :    1.070131    2.334937    3.502493    4.162630    4.163732    3.491917
 H     :    1.956738    1.089647    2.269226    2.580725    2.579982    3.140081

            H           H     
            ------      ------
 H     :    0.000000
 H     :    2.915420    0.000000


  Max    interatomic separation is    4.1637 Angstrom (    7.8683 Bohr)
  between atoms    7 and    5, "H     " and "H     ".

  Min HX interatomic separation is    1.0701 Angstrom (    2.0223 Bohr)

  Min YX interatomic separation is    1.2650 Angstrom (    2.3906 Bohr)


  Bond distances (Angstrom):
  --------------------------

                  atom 1     atom 2       distance
                  ------     ------       --------
  bond distance:  C2         C1           1.265039
  bond distance:  C3         C2           1.525192
  bond distance:  H          C3           1.082026
  bond distance:  H          C3           1.082015
  bond distance:  H          C3           1.078475
  bond distance:  H          C1           1.070131
  bond distance:  H          C2           1.089647


  Bond angles (degrees):
  ----------------------

                  atom 1     atom 2     atom 3         angle
                  ------     ------     ------         -----
  bond angle:     C2         C1         H            178.377
  bond angle:     C1         C2         C3           128.329
  bond angle:     C1         C2         H            112.189
  bond angle:     C3         C2         H            119.482
  bond angle:     C2         C3         H            107.602
  bond angle:     C2         C3         H            107.606
  bond angle:     C2         C3         H            111.744
  bond angle:     H          C3         H            109.375
  bond angle:     H          C3         H            110.213
  bond angle:     H          C3         H            110.213



@ Geometry converged in 13 iterations!

@ Energy at final geometry is       :    -116.140579 a.u.
@ Energy change during optimization :      -0.003521 a.u.
@                                             -9.243 kJ/mol
 

 Center of mass dipole origin  :  -14.484787    0.350543   -0.001676

 Center of mass gauge origin   :  -14.484787    0.350543   -0.001676


                 .------------------------------------------------.
                 | Starting in Static Property Section (ABACUS) - |
                 `------------------------------------------------'


 
     Date and time (Linux)  : Sat Apr 13 14:16:15 2024
     Host name              : node100                                 


   ***************************************************************************
   ************************ FINAL RESULTS from ABACUS ************************
   ***************************************************************************


 
     Date and time (Linux)  : Sat Apr 13 14:16:16 2024
     Host name              : node100                                 


                             Molecular geometry (au)
                             -----------------------

 C1       -16.9051359052            0.5695166233           -0.0308620949
 C2       -14.7352702674           -0.4321131784            0.0264289469
 C3       -12.1641572534            0.8700511787           -0.0018262748
 H        -11.1440269449            0.1889616225           -1.6377915628
 H        -11.1707624134            0.3143749130            1.6967735216
 H        -12.3459741457            2.8984573875           -0.0795693173
 H        -18.7639719576            1.3644969017           -0.0782625316
 H        -14.8294194202           -2.4875873060            0.1051282101





                        Molecular wave function and energy
                        ----------------------------------

     Spatial symmetry   1 ( A   )
     Spin multiplicity  1
     2 * M_S            0
     State number       1
     Total charge       1

     Total energy       -116.1405792498 au (Hartrees)
                         -3160.34592433 eV
                           -304927.0438 kJ/mol
                            -72879.3126 kcal/mol


                   Scalar Breit-Pauli relativistic corrections
                   -------------------------------------------

     Darwin correction:                          0.1785420399 au
     Mass-velocity correction:                  -0.2224679948 au

     Total relativistic correction:             -0.0439259549 au ( 0.0378%)
     Non-relativistic + relativistic energy:  -116.1845052047 au



      (Note that these corrections are NOT included in the results below.)


                                  Dipole moment
                                  -------------

                 au               Debye          C m (/(10**-30)
              1.009083           2.564832           8.555359


                             Dipole moment components
                             ------------------------

                 au               Debye          C m (/(10**-30)

      x     -1.00450224        -2.55318985        -8.51652463
      y     -0.09589519        -0.24374124        -0.81303328
      z     -0.00521452        -0.01325400        -0.04421058


   Units:   1 a.u. =   2.54175 Debye 
            1 a.u. =   8.47835 (10**-30) C m (SI)




   Interatomic separations (in Angstrom):
   --------------------------------------

            C1          C2          C3          H           H           H     
            ------      ------      ------      ------      ------      ------
 C1    :    0.000000
 C2    :    1.265039    0.000000
 C3    :    2.513900    1.525192    0.000000
 H     :    3.171420    2.120172    1.082026    0.000000
 H     :    3.172101    2.120213    1.082015    1.765880    0.000000
 H     :    2.709278    2.169799    1.078475    1.772080    1.772072    0.000000
 H     :    1.070131    2.334937    3.502493    4.162630    4.163732    3.491917
 H     :    1.956738    1.089647    2.269226    2.580725    2.579982    3.140081

            H           H     
            ------      ------
 H     :    0.000000
 H     :    2.915420    0.000000


  Max    interatomic separation is    4.1637 Angstrom (    7.8683 Bohr)
  between atoms    7 and    5, "H     " and "H     ".

  Min HX interatomic separation is    1.0701 Angstrom (    2.0223 Bohr)

  Min YX interatomic separation is    1.2650 Angstrom (    2.3906 Bohr)


  Bond distances (Angstrom):
  --------------------------

                  atom 1     atom 2       distance
                  ------     ------       --------
  bond distance:  C2         C1           1.265039
  bond distance:  C3         C2           1.525192
  bond distance:  H          C3           1.082026
  bond distance:  H          C3           1.082015
  bond distance:  H          C3           1.078475
  bond distance:  H          C1           1.070131
  bond distance:  H          C2           1.089647


  Bond angles (degrees):
  ----------------------

                  atom 1     atom 2     atom 3         angle
                  ------     ------     ------         -----
  bond angle:     C2         C1         H            178.377
  bond angle:     C1         C2         C3           128.329
  bond angle:     C1         C2         H            112.189
  bond angle:     C3         C2         H            119.482
  bond angle:     C2         C3         H            107.602
  bond angle:     C2         C3         H            107.606
  bond angle:     C2         C3         H            111.744
  bond angle:     H          C3         H            109.375
  bond angle:     H          C3         H            110.213
  bond angle:     H          C3         H            110.213


  Total CPU  time used in ABACUS:   0.01 seconds
  Total wall time used in ABACUS:   0.01 seconds


                   .-------------------------------------------.
                   | End of Static Property Section (ABACUS) - |
                   `-------------------------------------------'

  Total CPU  time used in DALTON:   7.87 seconds
  Total wall time used in DALTON:  13.17 seconds

 
     Date and time (Linux)  : Sat Apr 13 14:16:16 2024
     Host name              : node100                                 
