

     ************************************************************************
     *************** Dalton - An Electronic Structure Program ***************
     ************************************************************************

    This is output from DALTON release Dalton2022.0-dev (2022)
         ( Web site: http://daltonprogram.org )

   ----------------------------------------------------------------------------

    NOTE:
     
    Dalton is an experimental code for the evaluation of molecular
    properties using (MC)SCF, DFT, CI, and CC wave functions.
    The authors accept no responsibility for the performance of
    the code or for the correctness of the results.
     
    The code (in whole or part) is provided under a licence and
    is not to be reproduced for further distribution without
    the written permission of the authors or their representatives.
     
    See the home page "http://daltonprogram.org" for further information.
     
    If results obtained with this code are published,
    the appropriate citations would be both of:
     
       K. Aidas, C. Angeli, K. L. Bak, V. Bakken,
       R. Bast, L. Boman, O. Christiansen, R. Cimiraglia,
       S. Coriani, P. Dahle, E. K. Dalskov, U. Ekstroem,
       T. Enevoldsen, J. J. Eriksen, P. Ettenhuber, B. Fernandez,
       L. Ferrighi, H. Fliegl, L. Frediani, K. Hald, A. Halkier,
       C. Haettig, H. Heiberg, T. Helgaker, A. C. Hennum,
       H. Hettema, E. Hjertenaes, S. Hoest, I.-M. Hoeyvik,
       M. F. Iozzi, B. Jansik, H. J. Aa. Jensen, D. Jonsson,
       P. Joergensen, J. Kauczor, S. Kirpekar,
       T. Kjaergaard, W. Klopper, S. Knecht, R. Kobayashi, H. Koch,
       J. Kongsted, A. Krapp, K. Kristensen, A. Ligabue,
       O. B. Lutnaes, J. I. Melo, K. V. Mikkelsen, R. H. Myhre,
       C. Neiss, C. B. Nielsen, P. Norman, J. Olsen,
       J. M. H. Olsen, A. Osted, M. J. Packer, F. Pawlowski,
       T. B. Pedersen, P. F. Provasi, S. Reine, Z. Rinkevicius,
       T. A. Ruden, K. Ruud, V. Rybkin, P. Salek, C. C. M. Samson,
       A. Sanchez de Meras, T. Saue, S. P. A. Sauer,
       B. Schimmelpfennig, K. Sneskov, A. H. Steindal,
       K. O. Sylvester-Hvid, P. R. Taylor, A. M. Teale,
       E. I. Tellgren, D. P. Tew, A. J. Thorvaldsen, L. Thoegersen,
       O. Vahtras, M. A. Watson, D. J. D. Wilson, M. Ziolkowski
       and H. Agren,
       "The Dalton quantum chemistry program system",
       WIREs Comput. Mol. Sci. 2014, 4:269-284 (doi: 10.1002/wcms.1172)
     
    and
     
       Dalton, a molecular electronic structure program,
       Release Dalton2022.0-dev (2022), see http://daltonprogram.org
   ----------------------------------------------------------------------------

    Authors in alphabetical order (Major contribution(s) in parenthesis):

  Kestutis Aidas,              Vilnius University,        Lithuania   (QM/MM)
  Celestino Angeli,            University of Ferrara,     Italy       (NEVPT2)
  Juan J. Aucar,               Northeast National UniversiArgentina   (LRESC, Relativistic Effects on EFG)
  Keld L. Bak,                 UNI-C,                     Denmark     (AOSOPPA, non-adiabatic coupling, magnetic properties)
  Vebjoern Bakken,             University of Oslo,        Norway      (DALTON; geometry optimizer, symmetry detection)
  Radovan Bast,                UiT The Arctic U. of NorwayNorway      (DALTON installation and execution frameworks)
  Pablo Baudin,                University of Valencia,    Spain       (Cholesky excitation energies)
  Linus Boman,                 NTNU,                      Norway      (Cholesky decomposition and subsystems)
  Bruno N. Cabral Tenorio,     Technical Univ. of Denmark,Denmark     (Lanczos-based CC methods)
  Ove Christiansen,            Aarhus University,         Denmark     (CC module)
  Renzo Cimiraglia,            University of Ferrara,     Italy       (NEVPT2)
  Sonia Coriani,               Technical Univ. of Denmark,Denmark     (CC and RESPONS modules)
  Janusz Cukras,               University of Warsaw,      Poland      (MChD in RESPONS)
  Paal Dahle,                  University of Oslo,        Norway      (Parallelization)
  Erik K. Dalskov,             UNI-C,                     Denmark     (SOPPA)
  Thomas Enevoldsen,           Univ. of Southern Denmark, Denmark     (SOPPA)
  Janus J. Eriksen,            Aarhus University,         Denmark     (Polarizable embedding, TDA)
  Rasmus Faber,                Technical Univ. of Denmark,Denmark     (Vib.avg. NMR w. SOPPA, parallel AO-SOPPA, CVS-CC and EOMCC)
  Tobias Fahleson,             KTH Stockholm,             Sweden      (Damped cubic response)
  Berta Fernandez,             U. of Santiago de CompostelSpain       (Doublet spin, ESR in RESPONS)
  Lara Ferrighi,               Aarhus University,         Denmark     (PCM Cubic response)
  Heike Fliegl,                University of Oslo,        Norway      (CCSD(R12))
  Luca Frediani,               UiT The Arctic U. of NorwayNorway      (PCM)
  Emmanuel Fromager,           Univ. Strasbourg,          France      (MC-srDFT)
  Bin Gao,                     UiT The Arctic U. of NorwayNorway      (Gen1Int library)
  Andre S. P. Gomes,           CNRS/Universite de Lille,  France      (Frozen density embedding)
  Christof Haettig,            Ruhr-University Bochum,    Germany     (CC module)
  Kasper Hald,                 Aarhus University,         Denmark     (CC module)
  Asger Halkier,               Aarhus University,         Denmark     (CC module)
  Frederik Beyer Hansen,       University of Copenhagen,  Denmark     (Parallel AO-SOPPA)
  Erik D. Hedegaard,           Univ. of Southern Denmark, Denmark     (Polarizable embedding, QM/MM, and MC-srDFT)
  Hanne Heiberg,               University of Oslo,        Norway      (Geometry analysis, selected one-electron integrals)
  Trygve Helgaker,             University of Oslo,        Norway      (DALTON; ABACUS, ERI, DFT modules, London, and much more)
  Alf Christian Hennum,        University of Oslo,        Norway      (Parity violation)
  Hinne Hettema,               University of Auckland,    New Zealand (Quadratic response in RESPONS; SIRIUS supersymmetry)
  Andreas E. Hillers-Bendtsen, University of Copenhagen,  Denmark     (MP3)
  Eirik Hjertenaes,            NTNU,                      Norway      (Cholesky decomposition)
  Nicolai Machholdt Hoeyer,    Aarhus University,         Denmark     (MP3)
  Pi A. B. Haase,              University of Copenhagen,  Denmark     (Triplet AO-SOPPA)
  Maria Francesca Iozzi,       University of Oslo,        Norway      (RPA)
  Christoph Jacob,             TU Braunschweig            Germany     (Frozen density embedding)
  Brano Jansik,                Technical Univ. of Ostrava Czech Rep.  (DFT cubic response)
  Hans Joergen Aa. Jensen,     Univ. of Southern Denmark, Denmark     (DALTON; SIRIUS, RESPONS, ABACUS, MC-srDFT, and much more)
  Dan Jonsson,                 UiT The Arctic U. of NorwayNorway      (Cubic response in RESPONS module)
  Poul Joergensen,             Aarhus University,         Denmark     (RESPONS, ABACUS, and CC modules)
  Maciej Kaminski,             University of Warsaw,      Poland      (CPPh in RESPONS)
  Joanna Kauczor,              Linkoeping University,     Sweden      (Complex polarization propagator (CPP) module)
  Sheela Kirpekar,             Univ. of Southern Denmark, Denmark     (Mass-velocity & Darwin integrals)
  Frederik Oersted Kjeldal,    Technical Univ. of Denmark,Denmark     (MP3)
  Erik Kjellgren,              Univ. of Southern Denmark, Denmark     (MC-srDFT)
  Wim Klopper,                 KIT Karlsruhe,             Germany     (R12 code in CC, SIRIUS, and ABACUS modules)
  Stefan Knecht,               ETH Zurich,                Switzerland (Parallel CI and MCSCF, MC-srDFT)
  Rika Kobayashi,              Australian National Univ., Australia   (DIIS in CC, London in MCSCF)
  Henrik Koch,                 NTNU,                      Norway      (CC module, Cholesky decomposition)
  Jacob Kongsted,              Univ. of Southern Denmark, Denmark     (Polarizable embedding, polarizable density embedding, QM/MM)
  Andrea Ligabue,              University of Modena,      Italy       (CTOCD, AOSOPPA)
  Nanna H. List,               Univ. of Southern Denmark, Denmark     (Polarizable embedding)
  Ola B. Lutnaes,              University of Oslo,        Norway      (DFT Hessian)
  Juan I. Melo,                University of Buenos Aires,Argentina   (LRESC, Relativistic Effects on NMR Shieldings)
  Kurt V. Mikkelsen,           University of Copenhagen,  Denmark     (MC-SCRF, QM/MM, and MP3)
  Rolf H. Myhre,               NTNU,                      Norway      (Subsystems and CC3)
  Christian Neiss,             Univ. Erlangen-Nuernberg,  Germany     (CCSD(R12))
  Christian B. Nielsen,        University of Copenhagen,  Denmark     (QM/MM)
  Patrick Norman,              KTH Stockholm,             Sweden      (Cubic response and complex frequency response in RESPONS)
  Jeppe Olsen,                 Aarhus University,         Denmark     (SIRIUS CI/density modules)
  Jogvan Magnus H. Olsen,      Aarhus University,         Denmark     (Polarizable embedding and polarizable density embedding)
  Anders Osted,                Copenhagen University,     Denmark     (QM/MM)
  Martin J. Packer,            University of Sheffield,   UK          (SOPPA)
  Filip Pawlowski,             Kazimierz Wielki UniversityPoland      (CC3)
  Morten N. Pedersen,          Univ. of Southern Denmark, Denmark     (Polarizable embedding)
  Thomas B. Pedersen,          University of Oslo,        Norway      (Cholesky decomposition)
  Patricio F. Provasi,         University of Northeastern,Argentina   (Analysis of coupling constants in localized orbitals)
  Peter Reinholdt,             Univ. of Southern Denmark, Denmark     (Polarizable embedding and polarizable density embedding)
  Zilvinas Rinkevicius,        KTH Stockholm,             Sweden      (open-shell DFT, ESR)
  Elias Rudberg,               KTH Stockholm,             Sweden      (DFT grid and basis info)
  Torgeir A. Ruden,            University of Oslo,        Norway      (Numerical derivatives in ABACUS)
  Kenneth Ruud,                UiT The Arctic U. of NorwayNorway      (DALTON; ABACUS magnetic properties and much more)
  Pawel Salek,                 KTH Stockholm,             Sweden      (DALTON; DFT code)
  Claire C. M. Samson,         University of Karlsruhe    Germany     (Boys localization, r12 integrals in ERI)
  Alfredo Sanchez de Meras,    University of Valencia,    Spain       (CC module, Cholesky decomposition)
  Trond Saue,                  Paul Sabatier University,  France      (direct Fock matrix construction)
  Stephan P. A. Sauer,         University of Copenhagen,  Denmark     (SOPPA(CCSD), SOPPA prop., AOSOPPA, vibrational g-factors)
  Bernd Schimmelpfennig,       Forschungszentrum KarlsruheGermany     (AMFI module)
  Anna K. Schnack-Petersen,    University of Copenhagen,  Denmark     (RPA(D) and HRPA(D) properties in AOSOPPA)
  Kristian Sneskov,            Aarhus University,         Denmark     (Polarizable embedding, QM/MM)
  Arnfinn H. Steindal,         UiT The Arctic U. of NorwayNorway      (parallel QM/MM, polarizable embedding)
  Casper Steinmann,            Aalborg University,        Denmark     (QFIT, polarizable embedding)
  K. O. Sylvester-Hvid,        University of Copenhagen,  Denmark     (MC-SCRF)
  Peter R. Taylor,             VLSCI/Univ. of Melbourne,  Australia   (Symmetry handling ABACUS, integral transformation)
  Andrew M. Teale,             University of Nottingham,  England     (DFT-AC, DFT-D)
  David P. Tew,                University of Bristol,     England     (CCSD(R12))
  Julien Toulouse,             Sorbonne Univ.,            France      (MC-srDFT)
  Olav Vahtras,                KTH Stockholm,             Sweden      (Triplet response, spin-orbit, ESR, TDDFT, open-shell DFT)
  Lucas Visscher,              Vrije Universiteit AmsterdaNetherlands (Frozen density embedding)
  David J. Wilson,             La Trobe University,       Australia   (DFT Hessian and DFT magnetizabilities)
  Luna Zamok,                  University of Copenhagen,  Denmark     (Block Lanczos RPA solver in SOPPA module)
  Hans Agren,                  KTH Stockholm,             Sweden      (SIRIUS module, RESPONS, MC-SCRF solvation)
 --------------------------------------------------------------------------------

     Date and time (Linux)  : Sat Apr 13 12:02:49 2024
     Host name              : node103                                 

 * Work memory size             :    64000000 =  488.28 megabytes.

 * Directories for basis set searches:
   1) /home1/s4925076/dalton-files/Sample_inputs_dalton2024_updated/ex4/h2o_mcscf12
   2) /home3/hb-qchav/Dalton/basis


Compilation information
-----------------------

 Who compiled             | p256146
 Host                     | login1
 System                   | Linux-4.18.0-425.13.1.el8_7.x86_64
 CMake generator          | Unix Makefiles
 Processor                | x86_64
 64-bit integers          | OFF
 MPI                      | ON
 Fortran compiler         | /cvmfs/hpc.rug.nl/versions/2023.01/rocky8/x86_64/a
                          | md/zen3/software/impi/2021.7.1-intel-compilers-202
                          | 2.2.1/mpi/2021.7.1/bin/mpiifort
 Fortran compiler version | unknown
 C compiler               | /cvmfs/hpc.rug.nl/versions/2023.01/rocky8/x86_64/a
                          | md/zen3/software/impi/2021.7.1-intel-compilers-202
                          | 2.2.1/mpi/2021.7.1/bin/mpiicc
 C compiler version       | unknown
 C++ compiler             | /cvmfs/hpc.rug.nl/versions/2023.01/rocky8/x86_64/a
                          | md/zen3/software/impi/2021.7.1-intel-compilers-202
                          | 2.2.1/mpi/2021.7.1/bin/mpiicpc
 C++ compiler version     | unknown
 BLAS                     | /cvmfs/hpc.rug.nl/versions/2023.01/rocky8/x86_64/a
                          | md/zen3/software/imkl/2022.2.1/mkl/2022.2.1/lib/in
                          | tel64/libmkl_intel_lp64.so;/cvmfs/hpc.rug.nl/versi
                          | ons/2023.01/rocky8/x86_64/amd/zen3/software/imkl/2
                          | 022.2.1/mkl/2022.2.1/lib/intel64/libmkl_sequential
                          | .so;/cvmfs/hpc.rug.nl/versions/2023.01/rocky8/x86_
                          | 64/amd/zen3/software/imkl/2022.2.1/mkl/2022.2.1/li
                          | b/intel64/libmkl_core.so;/usr/lib64/libpthread.so;
                          | /usr/lib64/libm.so
 LAPACK                   | /cvmfs/hpc.rug.nl/versions/2023.01/rocky8/x86_64/a
                          | md/zen3/software/imkl/2022.2.1/mkl/2022.2.1/lib/in
                          | tel64/libmkl_lapack95_lp64.a;/cvmfs/hpc.rug.nl/ver
                          | sions/2023.01/rocky8/x86_64/amd/zen3/software/imkl
                          | /2022.2.1/mkl/2022.2.1/lib/intel64/libmkl_intel_lp
                          | 64.so
 Static linking           | OFF
 Last Git revision        | 4d6ac05be54d7f9c5fe49e0ac32a42491a6c6955
 Git branch               | master
 Configuration time       | 2023-04-05 13:35:07.780405

 * Sequential calculation.


   Content of the .dal input file
 ----------------------------------

**DALTON INPUT
.RUN WAVEFUNCTION
**WAVE FUNCTIONS
.HF
.MCSCF
*CONFIGURATION INPUT
.SYMMETRY
 1
.SPIN MUL
 1
.ELECTRONS
10
.CAS SPACE
12 0 0 0
**END OF DALTON INPUT


   Content of the .mol file
 ----------------------------

BASIS
cc-pVDZ
Calculation of excitation energies through ABACUS

Atomtypes=2 Multiplicity=1 Charge=0 Nosymmetry
Charge=8.0 Atoms=1
O   0.00000             0.00000              0.1241444240
Charge=1.0 Atoms=2
H   0.00000             1.43153              -0.985265576
H   0.00000            -1.43153              -0.985265576


       *******************************************************************
       *********** Output from DALTON general input processing ***********
       *******************************************************************

 --------------------------------------------------------------------------------
   Overall default print level:    0
   Print level for DALTON.STAT:    1

    HERMIT 1- and 2-electron integral sections will be executed
    "Old" integral transformation used (limited to max 255 basis functions)
    Wave function sections will be executed (SIRIUS module)
 --------------------------------------------------------------------------------


   ****************************************************************************
   *************** Output of molecule and basis set information ***************
   ****************************************************************************


    The two title cards from your ".mol" input:
    --------------------------------------------------------------------------------
 1: Calculation of excitation energies through ABACUS
 2: 
    --------------------------------------------------------------------------------

  Atomic type no.    1
  --------------------
  Nuclear charge:   8.00000
  Number of symmetry independent centers:    1
  Number of basis sets to read;    2
  Basis set file used for this atomic type with Z =   8 :
     "/home3/hb-qchav/Dalton/basis/cc-pVDZ"

  Atomic type no.    2
  --------------------
  Nuclear charge:   1.00000
  Number of symmetry independent centers:    2
  Number of basis sets to read;    2
  Basis set file used for this atomic type with Z =   1 :
     "/home3/hb-qchav/Dalton/basis/cc-pVDZ"


                         SYMGRP: Point group information
                         -------------------------------

@    Point group: C1 


                                 Isotopic Masses
                                 ---------------

                           O          15.994915
                           H           1.007825
                           H           1.007825

                       Total mass:    18.010565 amu
                       Natural abundance:  99.730 %

 Center-of-mass coordinates (a.u.):    0.000000    0.000000   -0.000015
 Center-of-mass coordinates (Angs):    0.000000    0.000000   -0.000008


  Atoms and basis sets
  --------------------

  Number of atom types :    2
  Total number of atoms:    3

  Basis set used is "cc-pVDZ" from the basis set library.

  label    atoms   charge   prim   cont     basis
  ----------------------------------------------------------------------
  O           1    8.0000    26    14      [9s4p1d|3s2p1d]                                    
  H           2    1.0000     7     5      [4s1p|2s1p]                                        
  ----------------------------------------------------------------------
  total:      3   10.0000    40    24
  ----------------------------------------------------------------------
  Spherical harmonic basis used.

  Threshold for neglecting AO integrals:  1.00D-12


  Cartesian Coordinates (a.u.)
  ----------------------------

  Total number of coordinates:    9
  O       :     1  x   0.0000000000    2  y   0.0000000000    3  z   0.1241444240
  H       :     4  x   0.0000000000    5  y   1.4315300000    6  z  -0.9852655760
  H       :     7  x   0.0000000000    8  y  -1.4315300000    9  z  -0.9852655760


   Interatomic separations (in Angstrom):
   --------------------------------------

            O           H           H     
            ------      ------      ------
 O     :    0.000000
 H     :    0.958391    0.000000
 H     :    0.958391    1.515066    0.000000


  Max    interatomic separation is    1.5151 Angstrom (    2.8631 Bohr)
  between atoms    3 and    2, "H     " and "H     ".

  Min HX interatomic separation is    0.9584 Angstrom (    1.8111 Bohr)


  Bond distances (Angstrom):
  --------------------------

                  atom 1     atom 2       distance
                  ------     ------       --------
  bond distance:  H          O            0.958391
  bond distance:  H          O            0.958391


  Bond angles (degrees):
  ----------------------

                  atom 1     atom 2     atom 3         angle
                  ------     ------     ------         -----
  bond angle:     H          O          H            104.450




 Principal moments of inertia (u*A**2) and principal axes
 --------------------------------------------------------

   IA       0.616959          0.000000    1.000000    0.000000
   IB       1.156694          0.000000    0.000000    1.000000
   IC       1.773652          1.000000    0.000000    0.000000


 Rotational constants
 --------------------

@    The molecule is planar.

               A                   B                   C

         819145.5126         436916.9575         284936.9149 MHz
           27.323753           14.573981            9.504472 cm-1


@  Nuclear repulsion energy :    9.183706230245 Hartree


                     .---------------------------------------.
                     | Starting in Integral Section (HERMIT) |
                     `---------------------------------------'



 ***************************************************************************************
 ****************** Output from **INTEGRALS input processing (HERMIT) ******************
 ***************************************************************************************


 - Using defaults, no **INTEGRALS input found

 Default print level:        1

 Calculation of one- and two-electron Hamiltonian integrals.

 Center of mass  (bohr):      0.000000000000      0.000000000000     -0.000015049426
 Operator center (bohr):      0.000000000000      0.000000000000      0.000000000000
 Gauge origin    (bohr):      0.000000000000      0.000000000000      0.000000000000
 Dipole origin   (bohr):      0.000000000000      0.000000000000      0.000000000000

Calculation of 2-electron integrals are postponed until they are needed.


     ************************************************************************
     ************************** Output from HERINT **************************
     ************************************************************************



                      Nuclear contribution to dipole moments
                      --------------------------------------

                 au               Debye          C m (/(10**-30)

      x      0.00000000         0.00000000         0.00000000
      y      0.00000000         0.00000000         0.00000000
      z     -0.97737576        -2.48424123        -8.28653678


  Total CPU  time used in HERMIT:   0.00 seconds
  Total wall time used in HERMIT:   0.00 seconds


                        .----------------------------------.
                        | End of Integral Section (HERMIT) |
                        `----------------------------------'



                   .--------------------------------------------.
                   | Starting in Wave Function Section (SIRIUS) |
                   `--------------------------------------------'


 *** Output from Huckel module :

     Using EWMO model:          T
     Using EHT  model:          F
     Number of Huckel orbitals each symmetry:    7

 EWMO - Energy Weighted Maximum Overlap - is a Huckel type method,
        which normally is better than Extended Huckel Theory.
 Reference: Linderberg and Ohrn, Propagators in Quantum Chemistry (Wiley, 1973)

 Huckel EWMO eigenvalues for symmetry :  1
          -20.684949      -1.610949      -0.778093      -0.688539      -0.616200
           -0.232646      -0.168524

 **********************************************************************
 *SIRIUS* a direct, restricted step, second order MCSCF program       *
 **********************************************************************

 
     Date and time (Linux)  : Sat Apr 13 12:02:49 2024
     Host name              : node103                                 

 Title lines from ".mol" input file:
     Calculation of excitation energies through ABACUS
     

 Print level on unit LUPRI =   2 is   0
 Print level on unit LUW4  =   2 is   5

@    MCSCF optimization.
@              Type: complete active space calculation (CAS).

@    This is a combination run starting with
@              a restricted, closed shell Hartree-Fock calculation


 Initial molecular orbitals are obtained according to
 ".MOSTART EWMO  " input option

     Wave function specification
     ============================
@    Wave function type        --- MC-SCF ---
@    Number of closed shell electrons           0
@    Number of electrons in active shells      10
@    Total charge of the molecule               0

@    Spin multiplicity and 2 M_S                1         0
@    Total number of symmetries                 1 (point group: C1 )
@    Reference state symmetry                   1 (irrep name : A  )

     Orbital specifications
     ======================
@    Abelian symmetry species          All |    1
@                                          |  A  
                                       --- |  ---
@    Inactive orbitals                   0 |    0
@    Active orbitals                    12 |   12
@    Secondary orbitals                 12 |   12
@    Total number of orbitals           24 |   24
@    Number of basis functions          24 |   24

      -- Initial occupation of symmetries is determined from total charge (only one symmetry!)
      -- Initial occupation of symmetries is :
@    Occupied SCF orbitals               5 |    5

     Optimization information
     ========================
@    Number of configurations            169884
@    Number of orbital rotations            144
     ------------------------------------------
@    Total number of variables           170028

     Maximum number of macro iterations      25
     Maximum number of micro iterations     600
     Threshold for MCSCF gradient      1.00D-05
     Number of initial trial vectors          1
     Number of initial CI iterations         -1
     Number of simultaneous trial vectors     1

@    This calculation converges to the lowest state for the specified symmetry and spin species.

     Maximum number of NEO/NR iterations  24


 ***********************************************
 ***** DIIS acceleration of SCF iterations *****
 ***********************************************

 C1-DIIS algorithm; max error vectors =    8

 Iter      Total energy        Error norm    Delta(E)  DIIS dim.
 -----------------------------------------------------------------------------

Calculating AOSUPINT

---> (Re)generating AOTWOINT


     ************************************************************************
     ************************** Output from HERINT **************************
     ************************************************************************


 Threshold for neglecting two-electron integrals:  1.00D-12
 HERMIT - Number of two-electron integrals written:       21643 ( 47.9% )
 HERMIT - Megabytes written:                              0.254

  Total CPU  time used in TWOINT:   0.01 seconds
  Total wall time used in TWOINT:   0.01 seconds
     (Precalculated AO two-electron integrals are transformed to P-supermatrix elements.
      Threshold for discarding integrals :  1.00D-12 )

@  1    -75.8501806543        1.64186D+00   -7.59D+01    1
      Virial theorem: -V/T =      2.000053
@    MULPOP   O      -0.55; H       0.28; H       0.28; 
   1  Level shift: doubly occupied orbital energies shifted by -2.00D-01
 -----------------------------------------------------------------------------
@  2    -76.0170028846        3.42098D-01   -1.67D-01    2
      Virial theorem: -V/T =      2.001775
@    MULPOP   O      -0.27; H       0.14; H       0.14; 
   2  Level shift: doubly occupied orbital energies shifted by -5.00D-02
 -----------------------------------------------------------------------------
@  3    -76.0259539163        8.33760D-02   -8.95D-03    3
      Virial theorem: -V/T =      2.000324
@    MULPOP   O      -0.29; H       0.14; H       0.14; 
   3  Level shift: doubly occupied orbital energies shifted by -1.25D-02
 -----------------------------------------------------------------------------
@  4    -76.0267038510        1.94782D-02   -7.50D-04    4
      Virial theorem: -V/T =      2.000791
@    MULPOP   O      -0.30; H       0.15; H       0.15; 
 -----------------------------------------------------------------------------
@  5    -76.0267353089        8.22598D-03   -3.15D-05    5
      Virial theorem: -V/T =      2.000408
@    MULPOP   O      -0.31; H       0.15; H       0.15; 
 -----------------------------------------------------------------------------
@  6    -76.0267413656        1.67435D-03   -6.06D-06    6
      Virial theorem: -V/T =      2.000541
@    MULPOP   O      -0.31; H       0.15; H       0.15; 
 -----------------------------------------------------------------------------
@  7    -76.0267418916        2.10951D-04   -5.26D-07    7
      Virial theorem: -V/T =      2.000557
@    MULPOP   O      -0.31; H       0.15; H       0.15; 
 -----------------------------------------------------------------------------
@  8    -76.0267418985        3.34690D-05   -6.90D-09    8
      Virial theorem: -V/T =      2.000557
@    MULPOP   O      -0.31; H       0.15; H       0.15; 
 -----------------------------------------------------------------------------
@  9    -76.0267418987        5.52193D-06   -1.44D-10    8

@ *** DIIS converged in   9 iterations !
@     Converged SCF energy, gradient:    -76.026741898674    5.52D-06
    - total time used in SIRFCK :              0.00 seconds

 --- Writing SIRIFC interface file

--------------------------------------------------------------------------------


     .--------------------------------------------------.
     | HF-SCF KT IPs [a.u. & eV] from Koopmans' theorem |
     `--------------------------------------------------'


     HF-SCF KT symmetry 1 ( A  ) in point group C1  -- 5 principal poles with pole strength 1

   ============  ============  ============  ============  ============
      20.550664      1.336160      0.698565      0.566491      0.493087
     559.212007     36.358752     19.008928     15.415000     13.417587
   ============  ============  ============  ============  ============

@ Summary of HF-SCF KT ionization potentials [eV]:

@ Symmetry 1 (A  ) :   559.212      36.359      19.009      15.415      13.418

  === End of HF-SCF KT output ===
--------------------------------------------------------------------------------


 CPU and wall time for SCF :       0.018       0.051


        SIRIUS MCSCF optimization (SIROPT)
 ================================================



 ----- Output from SIRIUS CI module (CICTL) -----




 2-el. integral transformation level 0: Total CPU and WALL times (sec)       0.005       0.005

 (CIST1) 8 lowest diagonal elements:

 Element no. Config.no.    Active energy      Total energy

         1 :          1    -85.2104481289    -76.0267418987
         2 :        793    -84.8673217153    -75.6836154851
         3 :        794    -84.7840433244    -75.6003370941
         4 :        821    -84.7784735779    -75.5947673477
         5 :        822    -84.7018966083    -75.5181903780
         6 :        849    -84.6642311209    -75.4805248907
         7 :        850    -84.5535958795    -75.3698896493
         8 :        796    -84.3823562153    -75.1986499851
First 1 elements used as separate start vectors.


 Convergence threshold for CI optimization :     0.01000000


 The requested root number is now converged.


 *** CI converged in  5 iterations.



@ Final CI energies and residuals in symmetry 1 (irrep A  )
@    1      -76.127004098467950       4.39D-03

   --- OUTPUT FROM SIRCNO     Keyword = ONLYFD



 --- MACRO ITERATION  1 ---
 --------------------------

 2-el. integral transformation level 3: Total CPU and WALL times (sec)       0.006       0.006

 Total MCSCF energy       :           -76.127004098475055  (MACRO    1)

 - Nuclear repulsion      :             9.183706230245228
 - Inactive energy        :             0.000000000000000
 - Active energy          :           -85.310710328720276

 Norm of total gradient   :             0.138142763056
 -    of CI gradient      :             0.008771341411
 -    of orbital gradient :             0.137864014720


 *** Label "NATOCC  " not found on SIRIUS.RST in SIRPOP

 WARNING, occupation of active orbitals not available
          population analysis aborted.
          Use ".TRACI" option.


 (SIRNEO) iteration (  1, 17)
 Micro iteration termination criterion met, EVAL(ISTATE+1) = -6.51D-03

   --- OUTPUT FROM SIRCNO     Keyword = FD+NO 


 Occupations of CAS natural orbitals:

 Symmetry  1 ( irrep A   in C1  )

   1.999958030   1.980809594   1.959882916   1.964516185   1.976026738
   0.036975350   0.000368266   0.034316637   0.002312310   0.019081511
   0.020810371   0.004942092


 --- MACRO ITERATION  2 ---
 --------------------------

 2-el. integral transformation level 3: Total CPU and WALL times (sec)       0.006       0.006

 Total MCSCF energy       :           -76.152488788710258  (MACRO    2)

 - Nuclear repulsion      :             9.183706230245228
 - Inactive energy        :             0.000000000000000
 - Active energy          :           -85.336195018955493

 Norm of total gradient   :             0.273903000141
 -    of CI gradient      :             0.268779961437
 -    of orbital gradient :             0.052727467378
      Virial theorem: -V/T =      2.000278
@    MULPOP   O      -0.27; H       0.13; H       0.13; 

 Residual norm when dim(red L) =  12
 NEO root     CSF        orbital          total
    1     0.03995091     0.01606812     0.04306112 converged

 (NEONEX) NEO vector is converged.

   --- OUTPUT FROM SIRCNO     Keyword = FD+NO 


 Occupations of CAS natural orbitals:

 Symmetry  1 ( irrep A   in C1  )

   1.999954909   1.986271346   1.966068485   1.970619201   1.981208650
   0.023402590   0.000537458   0.028122194   0.008665243   0.011262278
   0.017619992   0.006267654


 --- MACRO ITERATION  3 ---
 --------------------------

 2-el. integral transformation level 3: Total CPU and WALL times (sec)       0.006       0.006

 Total MCSCF energy       :           -76.166367427968936  (MACRO    3)

 - Nuclear repulsion      :             9.183706230245228
 - Inactive energy        :             0.000000000000000
 - Active energy          :           -85.350073658214157

 Norm of total gradient   :             0.169707601658
 -    of CI gradient      :             0.168533877937
 -    of orbital gradient :             0.019924910241
      Virial theorem: -V/T =      2.000602
@    MULPOP   O      -0.28; H       0.14; H       0.14; 

 (SIRNEO) iteration (  3, 16)
 Micro iteration termination criterion met, EVAL(ISTATE+1) = -2.74D-03

   --- OUTPUT FROM SIRCNO     Keyword = FD+NO 


 Occupations of CAS natural orbitals:

 Symmetry  1 ( irrep A   in C1  )

   1.999950943   1.985667826   1.969554898   1.971962344   1.981260693
   0.024083819   0.001680100   0.027503343   0.004271341   0.011421363
   0.017808709   0.004834621


 --- MACRO ITERATION  4 ---
 --------------------------

 2-el. integral transformation level 3: Total CPU and WALL times (sec)       0.006       0.006

 Total MCSCF energy       :           -76.171683281808100  (MACRO    4)

 - Nuclear repulsion      :             9.183706230245228
 - Inactive energy        :             0.000000000000000
 - Active energy          :           -85.355389512053321

 Norm of total gradient   :             0.150891788951
 -    of CI gradient      :             0.148992356683
 -    of orbital gradient :             0.023866495819
      Virial theorem: -V/T =      2.000410
@    MULPOP   O      -0.29; H       0.15; H       0.15; 

 Residual norm when dim(red L) =  16
 NEO root     CSF        orbital          total
    1     0.02492682     0.00320627     0.02513218 converged

 (NEONEX) NEO vector is converged.

   --- OUTPUT FROM SIRCNO     Keyword = FD+NO 


 Occupations of CAS natural orbitals:

 Symmetry  1 ( irrep A   in C1  )

   1.999952352   1.986920516   1.969992638   1.971621386   1.981367031
   0.024229009   0.001170612   0.026129060   0.004366232   0.011507664
   0.017741168   0.005002333


 --- MACRO ITERATION  5 ---
 --------------------------

 2-el. integral transformation level 3: Total CPU and WALL times (sec)       0.006       0.006

 Total MCSCF energy       :           -76.173893284524581  (MACRO    5)

 - Nuclear repulsion      :             9.183706230245228
 - Inactive energy        :             0.000000000000000
 - Active energy          :           -85.357599514769802

 Norm of total gradient   :             0.110698479658
 -    of CI gradient      :             0.109946771578
 -    of orbital gradient :             0.012878696297
      Virial theorem: -V/T =      2.000347
@    MULPOP   O      -0.29; H       0.14; H       0.14; 

 Residual norm when dim(red L) =   9
 NEO root     CSF        orbital          total
    1     0.01997978     0.00682482     0.02111326 converged

 (NEONEX) NEO vector is converged.

   --- OUTPUT FROM SIRCNO     Keyword = FD+NO 


 Occupations of CAS natural orbitals:

 Symmetry  1 ( irrep A   in C1  )

   1.999951548   1.987034000   1.969682288   1.971503268   1.981490436
   0.024403837   0.001146084   0.027012436   0.004085775   0.011359453
   0.017655896   0.004674978


 --- MACRO ITERATION  6 ---
 --------------------------

 2-el. integral transformation level 3: Total CPU and WALL times (sec)       0.007       0.007

 Total MCSCF energy       :           -76.174967686902903  (MACRO    6)

 - Nuclear repulsion      :             9.183706230245228
 - Inactive energy        :             0.000000000000000
 - Active energy          :           -85.358673917148138

 Norm of total gradient   :             0.033220527537
 -    of CI gradient      :             0.031630866102
 -    of orbital gradient :             0.010153411223
      Virial theorem: -V/T =      2.000477
@    MULPOP   O      -0.29; H       0.14; H       0.14; 

 Residual norm when dim(red L) =  16
 NEO root     CSF        orbital          total
    1     0.00299342     0.00067992     0.00306967 converged

 (NEONEX) NEO vector is converged.

   --- OUTPUT FROM SIRCNO     Keyword = FD+NO 


 Occupations of CAS natural orbitals:

 Symmetry  1 ( irrep A   in C1  )

   1.999951853   1.987047208   1.969692902   1.971358954   1.981516251
   0.024496175   0.001084721   0.027181234   0.004089129   0.011317340
   0.017622741   0.004641493


 --- MACRO ITERATION  7 ---
 --------------------------

 2-el. integral transformation level 3: Total CPU and WALL times (sec)       0.008       0.008

 Total MCSCF energy       :           -76.175037168751459  (MACRO    7)

 - Nuclear repulsion      :             9.183706230245228
 - Inactive energy        :             0.000000000000000
 - Active energy          :           -85.358743398996694

 Norm of total gradient   :             0.003475901739
 -    of CI gradient      :             0.003426601571
 -    of orbital gradient :             0.000583347732
      Virial theorem: -V/T =      2.000462
@    MULPOP   O      -0.29; H       0.14; H       0.14; 

 Residual norm when dim(red L) =  22
 NEO root     CSF        orbital          total
    1     0.00007874     0.00003100     0.00008462 converged

 (NEONEX) NEO vector is converged.

   --- OUTPUT FROM SIRCNO     Keyword = FD+NO 


 Occupations of CAS natural orbitals:

 Symmetry  1 ( irrep A   in C1  )

   1.999951759   1.987053788   1.969675858   1.971371100   1.981519075
   0.024502740   0.001080413   0.027197275   0.004086130   0.011312232
   0.017620955   0.004628674


 --- MACRO ITERATION  8 ---
 --------------------------

 2-el. integral transformation level 3: Total CPU and WALL times (sec)       0.007       0.007

 Total MCSCF energy       :           -76.175037791884705  (MACRO    8)

 - Nuclear repulsion      :             9.183706230245228
 - Inactive energy        :             0.000000000000000
 - Active energy          :           -85.358744022129926

 Norm of total gradient   :             0.000085351755
 -    of CI gradient      :             0.000079618274
 -    of orbital gradient :             0.000030754716
      Virial theorem: -V/T =      2.000463
@    MULPOP   O      -0.29; H       0.14; H       0.14; 

 Residual norm when dim(red L) =  12
 NEO root     CSF        orbital          total
    1     0.00000638     0.00000635     0.00000900 converged

 (NEONEX) NEO vector is converged.

   --- OUTPUT FROM SIRCNO     Keyword = FD+NO 


 Occupations of CAS natural orbitals:

 Symmetry  1 ( irrep A   in C1  )

   1.999951759   1.987053737   1.969675657   1.971371112   1.981519037
   0.024502290   0.001080368   0.027197748   0.004086234   0.011312448
   0.017620995   0.004628613


 --- MACRO ITERATION  9 ---
 --------------------------

 2-el. integral transformation level 3: Total CPU and WALL times (sec)       0.007       0.007

 Total MCSCF energy       :           -76.175037792349826  (MACRO    9)

 - Nuclear repulsion      :             9.183706230245228
 - Inactive energy        :             0.000000000000000
 - Active energy          :           -85.358744022595062

 Norm of total gradient   :             0.000009002928
 -    of CI gradient      :             0.000006379417
 -    of orbital gradient :             0.000006352617
      Virial theorem: -V/T =      2.000463
@    MULPOP   O      -0.29; H       0.14; H       0.14; 

 (SIRSTP) Energy difference;
 actual, predicted and ratio:  -0.000000000465121  -0.000000000465524    0.999134
 Close to convergence, ratio set to one.

 *** Optimization control: MCSCF converged ***
     Number of macro iterations used            9
     Number of micro iterations used          108
     Total number of CPU seconds used        90.42
     Total WALL time used (seconds)          90.99

--------------------------------------------------------------------------------


     .---------------------------------------------------------------.
     | MCSCF EKT IPs [a.u. & eV], pole strengths, and Dyson orbitals |
     `---------------------------------------------------------------'


     MCSCF EKT symmetry 1 ( A  ) in point group C1  -- 5 principal poles

   ============  ============  ============  ============  ============
      20.550790      1.292984      0.695337      0.535351      0.440754
     559.215453     35.183871     18.921092     14.567646     11.993522
   ------------  ------------  ------------  ------------  ------------
       0.999971      0.947170      0.960095      0.948597      0.948428
   ============  ============  ============  ============  ============
       0.999923     -0.009416     -0.000000      0.006354     -0.000000
       0.010896      0.904352      0.000000     -0.348712      0.000000
      -0.000000     -0.000000     -0.979719     -0.000000      0.000000
       0.002514     -0.359044      0.000000     -0.909185      0.000000
      -0.000000      0.000000     -0.000000     -0.000000     -0.973678
      -0.000050     -0.010906      0.000000     -0.014915      0.000000
       0.000000     -0.000000      0.000826     -0.000000      0.000000
      -0.000000      0.000000      0.015110      0.000000     -0.000000
      -0.000025     -0.001952     -0.000000      0.000290     -0.000000
       0.000140      0.013944     -0.000000     -0.010833      0.000000
       0.000000      0.000000      0.000000     -0.000000     -0.019489
       0.000000      0.000000      0.004117      0.000000      0.000000
   ============  ============  ============  ============  ============

   ============  ============  ============  ============  ============
       2.933485      2.366190      2.698172      3.137238      1.893162
      79.824186     64.387307     73.421007     85.368599     51.515548
   ------------  ------------  ------------  ------------  ------------
       0.030895      0.041028      0.031477      0.001671      0.007544
   ============  ============  ============  ============  ============
       0.000264     -0.000584     -0.000652     -0.000000      0.000000
      -0.165042      0.025945      0.161383      0.000000     -0.000000
       0.000000     -0.000000      0.000000     -0.004536      0.026089
       0.011028      0.170462      0.031157     -0.000000      0.000000
       0.000000     -0.000000     -0.000000     -0.000000     -0.000000
      -0.026319     -0.104241      0.018731      0.000000      0.000000
       0.000000      0.000000      0.000000      0.017549     -0.013017
       0.000000      0.000000      0.000000      0.020454      0.078447
      -0.036369      0.004607     -0.026369      0.000000      0.000000
       0.038973     -0.020250     -0.058442     -0.000000     -0.000000
      -0.000000      0.000000      0.000000     -0.000000     -0.000000
      -0.000000      0.000000      0.000000     -0.030390     -0.023227
   ============  ============  ============  ============  ============

   ============  ============
       2.338212      2.689988
      63.625987     73.198305
   ------------  ------------
       0.051142      0.031983
   ============  ============
      -0.000000     -0.000000
      -0.000000      0.000000
       0.000000     -0.155846
      -0.000000      0.000000
      -0.206668     -0.000000
       0.000000      0.000000
      -0.000000     -0.007880
       0.000000     -0.082451
      -0.000000     -0.000000
       0.000000     -0.000000
       0.091819      0.000000
      -0.000000     -0.028884
   ============  ============

@ Summary of MCSCF EKT ionization potentials [eV] and pole strengths:

@ Symmetry 1 (A  ) :   559.215      35.184      18.921      14.568      11.994
@                       79.824      64.387      73.421      85.369      51.516
@                       63.626      73.198
@ Pole strengths   :     1.000       0.947       0.960       0.949       0.948
@                        0.031       0.041       0.031       0.002       0.008
@                        0.051       0.032

  === End of MCSCF EKT output ===
--------------------------------------------------------------------------------


 CPU and wall time for MCSCF :      90.419      90.992


                     .----------------------------------------.
                     | --- SIRIUS OPTIMIZATION STATISTICS --- |
                     `----------------------------------------'


 
     Date and time (Linux)  : Sat Apr 13 12:04:20 2024
     Host name              : node103                                 


  ITER ITMIC     EMCSCF           GRDNRM        RATIO      STPLNG
 ---------------------------------------------------------------------
    1   17    -76.127004098475   0.1381427631  0.000000   0.7671565315
    2   10    -76.152488788710   0.2739030001  0.555684   0.7042686068
    3   16    -76.166367427969   0.1697076017  0.688556   0.7669003080
    4   14    -76.171683281808   0.1508917890  0.700367   0.7501456720
    5    7    -76.173893284525   0.1106984797  0.659859   0.5186607480
    6   14    -76.174967686903   0.0332205275  0.953705   0.1000354001
    7   20    -76.175037168751   0.0034759017  1.004898   0.0082844089
    8   10    -76.175037791885   0.0000853518  1.001339   0.0002032696
    9    0    -76.175037792350   0.0000090029  1.000000   0.0000000000


  ITER  INDGCM  GCIMAX      GCINRM     INDGOM  GOBMAX      GOBNRM      GRDNRM
 ------------------------------------------------------------------------------
    1      9    0.000912    0.008771     30    0.078798    0.137864    0.138143
    2  15268    0.077238    0.268780     42   -0.025283    0.052727    0.273903
    3  15821   -0.076963    0.168534     20    0.007889    0.019925    0.169708
    4  15918    0.048567    0.148992     32    0.014742    0.023866    0.150892
    5      9    0.059616    0.109947     26   -0.010473    0.012879    0.110698
    6    854   -0.009253    0.031631     33   -0.007582    0.010153    0.033221
    7    910   -0.001318    0.003427     26    0.000299    0.000583    0.003476
    8    821   -0.000011    0.000080     13    0.000013    0.000031    0.000085
    9    831    0.000001    0.000006     13    0.000003    0.000006    0.000009


  ITER ITMIC NCLIN NOLIN   TIMMAC    TIMITR    TIMMIC    TIMLIN    TIMMIC/ITMIC
 ------------------------------------------------------------------------------

    1    17    13     4     12.68      0.01     11.85     11.65      0.70
    2    10     9     2      8.80      0.01      7.97      7.85      0.80
    3    16    13     4     12.69      0.01     11.86     11.66      0.74
    4    14    11     4     11.05      0.01     10.22     10.05      0.73
    5     7     6     2      6.38      0.01      5.55      5.46      0.79
    6    14    12     3     11.61      0.01     10.78     10.60      0.77
    7    20    17     4     16.01      0.01     15.18     14.89      0.76
    8    10     9     2      8.81      0.01      7.97      7.85      0.80
    9     0     0     0      0.82      0.01      0.00      0.00


 ITER         EMY                 EACTIV              EMCSCF

    1      0.000000000000    -85.310710328720    -76.127004098475
    2      0.000000000000    -85.336195018955    -76.152488788710
    3      0.000000000000    -85.350073658214    -76.166367427969
    4      0.000000000000    -85.355389512053    -76.171683281808
    5      0.000000000000    -85.357599514770    -76.173893284525
    6      0.000000000000    -85.358673917148    -76.174967686903
    7      0.000000000000    -85.358743398997    -76.175037168751
    8      0.000000000000    -85.358744022130    -76.175037791885
    9      0.000000000000    -85.358744022595    -76.175037792350


 ITER         DEPRED              DEACT               RATIO

    1      0.000000000000      0.000000000000      0.000000000000
    2     -0.045861802658     -0.025484690235      0.555684442345
    3     -0.020156142892     -0.013878639259      0.688556304294
    4     -0.007590094306     -0.005315853839      0.700367297828
    5     -0.003349205064     -0.002210002716      0.659858884263
    6     -0.001126556325     -0.001074402378      0.953704980796
    7     -0.000069143179     -0.000069481849      1.004898095217
    8     -0.000000622300     -0.000000623133      1.001338523586
    9     -0.000000000466     -0.000000000465      1.000000000000


 ITER    BETA           GAMMA             STPLNG              RTRUST

    1      1.28385167  1.00000000      0.767156531514      0.700000000000
    2      1.15505915  1.00000000      0.704268606843      0.700000000000
    3      0.85226895  1.00000000      0.766900307957      0.700000000000
    4      0.86585706  1.00000000      0.750145671970      0.700000000000
    5      0.20000000  1.00000000      0.518660747956      0.700000000000
    6      0.20000000  1.00000000      0.100035400105      0.700000000000
    7      0.20000000  1.00000000      0.008284408904      0.700000000000
    8      0.20000000  1.00000000      0.000203269632      0.700000000000
    9      0.00000000  0.00000000      0.000000000000      0.700000000000


 Reduced L root no.  1
 ITER         EVAL              EVEC(1)           EVEC(2)           EVEC(3)
 ----------------------------------------------------------------------------
    1   -0.076741771201    0.712460022971   -0.593986175320   -0.059951171033
    2   -0.032365603446    0.775744876497   -0.041784330563   -0.580053311684
    3   -0.007725839629    0.837061937999   -0.021449049627   -0.408147243253
    4   -0.003531854236    0.838627917999   -0.016269888602   -0.393056575248
    5   -0.000089165058    0.994662854356   -0.001954982496   -0.100527979885
    6   -0.000005529241    0.999799918439   -0.000581596073   -0.017797359549
    7   -0.000000049784    0.999998627374   -0.000085322369   -0.001515593397
    8   -0.000000000037    0.999999999174   -0.000002050225   -0.000039786642
    9    0.000000000000    0.000000000000    0.000000000000    0.000000000000


                       .-----------------------------------.
                       | --- Final results from SIRIUS --- |
                       `-----------------------------------'


@    Spin multiplicity:           1
@    Spatial symmetry:            1 ( irrep  A   in C1  )
@    Total charge of molecule:    0

@    This was an MCSCF calculation.
@    State number:                1

@    Final MCSCF energy:          -76.175037792350                 
@    Nuclear repulsion:             9.183706230245
@    Electronic energy:           -85.358744022595

@    Final gradient norm:           0.000009002928

 
     Date and time (Linux)  : Sat Apr 13 12:04:20 2024
     Host name              : node103                                 

 Occupancies of natural orbitals
 -------------------------------

 Symmetry 1  ( A  ) -- Total occupation in this symmetry is  10.000000000

   1.999951759   1.987053737   1.969675657   1.971371112   1.981519037
   0.024502290   0.001080368   0.027197748   0.004086234   0.011312448
   0.017620995   0.004628613

  Effective numbers of unpaired electrons this symmetry Eqs. 1) and 2):  0.36  0.02

  Total effective number of unpaired electrons :
  Eq. 1) sum(i) [(2 - n_i) n_i]    =  0.3576
  Eq. 2) sum(i) [(2 - n_i) n_i]**2 =  0.0159
 (Reference: M. Head-Gordon, Chemical Physics Letters 372 (2003) 508-511)

File label for MO orbitals:  13Apr24   (CNOORB)

 (Only coefficients > 0.0100 are printed.)

 Molecular orbitals for symmetry species 1  (A  )
 ------------------------------------------------

    Orbital         1        2        3        4        5        6        7
   1 O   :1s    -1.0005  -0.0031   0.0000  -0.0003   0.0000  -0.1019   0.0000
   2 O   :1s     0.0071  -0.9215   0.0000   0.0114  -0.0000  -0.7742   0.0000
   3 O   :1s     0.0018   0.0616  -0.0000  -0.2225  -0.0000   0.1575  -0.0000
   4 O   :2px    0.0000  -0.0000  -0.0000   0.0000   0.9134   0.0000   0.0000
   5 O   :2py   -0.0000  -0.0000  -0.7259   0.0000  -0.0000  -0.0000  -0.4586
   6 O   :2pz    0.0060  -0.1413  -0.0000  -0.7929  -0.0000   1.2631  -0.0000
   7 O   :2px   -0.0000  -0.0000  -0.0000  -0.0000   0.0789  -0.0000  -0.0000
   8 O   :2py   -0.0000  -0.0000   0.1208  -0.0000  -0.0000   0.0000   1.2381
   9 O   :2pz   -0.0009  -0.0700   0.0000   0.0297   0.0000  -0.8506   0.0000
  11 O   :3d1-   0.0000   0.0000   0.0263  -0.0000  -0.0000  -0.0000  -0.8741
  12 O   :3d0   -0.0001   0.0044   0.0000   0.0176  -0.0000  -0.0090  -0.0000
  13 O   :3d1+   0.0000  -0.0000   0.0000  -0.0000  -0.0181   0.0000   0.0000
  15 H   :1s     0.0015  -0.1982  -0.5582   0.4450  -0.0000   0.8551  -1.3879
  16 H   :1s    -0.0013   0.1010   0.1858  -0.1800   0.0000  -0.3363   0.7304
  17 H   :2px   -0.0000  -0.0000  -0.0000   0.0000   0.0319  -0.0000   0.0000
  18 H   :2py   -0.0007   0.0244   0.0199  -0.0392  -0.0000  -0.0462   0.0953
  19 H   :2pz    0.0007  -0.0216  -0.0299  -0.0044  -0.0000  -0.0071   0.2119
  20 H   :1s     0.0015  -0.1982   0.5582   0.4450  -0.0000   0.8551   1.3879
  21 H   :1s    -0.0013   0.1010  -0.1858  -0.1800  -0.0000  -0.3363  -0.7304
  22 H   :2px   -0.0000  -0.0000   0.0000   0.0000   0.0319  -0.0000  -0.0000
  23 H   :2py    0.0007  -0.0244   0.0199   0.0392  -0.0000   0.0462   0.0953
  24 H   :2pz    0.0007  -0.0216   0.0299  -0.0044  -0.0000  -0.0071  -0.2119

    Orbital         8        9       10       11       12       13       14
   1 O   :1s     0.0000  -0.1662   0.5081   0.0000   0.0000  -0.2450   0.0000
   2 O   :1s     0.0000  -0.7292   2.5564   0.0000   0.0000  -0.9584   0.0000
   3 O   :1s    -0.0000   0.9904  -2.5448  -0.0000  -0.0000   2.0088  -0.0000
   4 O   :2px   -0.0000  -0.0000   0.0000  -1.4110   0.0000  -0.0000  -0.0000
   5 O   :2py   -1.3013   0.0000   0.0000   0.0000  -0.5579   0.0000   0.3925
   6 O   :2pz   -0.0000   0.0124   0.6281   0.0000  -0.0000   0.0969  -0.0000
   7 O   :2px    0.0000   0.0000  -0.0000   1.6122  -0.0000   0.0000  -0.0000
   8 O   :2py    0.5820  -0.0000  -0.0000  -0.0000   1.1064  -0.0000  -1.3461
   9 O   :2pz    0.0000  -0.0129  -0.9241  -0.0000   0.0000  -0.2805   0.0000
  11 O   :3d1-  -0.0307  -0.0000  -0.0000   0.0000   0.6075  -0.0000   0.0284
  12 O   :3d0    0.0000   0.6391   0.0650   0.0000   0.0000   0.0610  -0.0000
  13 O   :3d1+  -0.0000   0.0000   0.0000  -0.0189   0.0000  -0.0000   0.0000
  14 O   :3d2+  -0.0000   0.3717   0.0361  -0.0000   0.0000  -0.0371   0.0000
  15 H   :1s     0.9828  -0.3436  -0.2722  -0.0000  -0.6679   0.6825  -0.3466
  16 H   :1s    -0.3329   0.1942   0.1669   0.0000   0.4636  -1.3875   1.9527
  17 H   :2px    0.0000   0.0000  -0.0000   0.0758  -0.0000   0.0000   0.0000
  18 H   :2py   -0.0364  -0.1294  -0.0112   0.0000   0.0785   0.1091  -0.1662
  19 H   :2pz    0.0083  -0.2088  -0.0668   0.0000   0.0792  -0.1557   0.1327
  20 H   :1s    -0.9828  -0.3436  -0.2722  -0.0000   0.6679   0.6825   0.3466
  21 H   :1s     0.3329   0.1942   0.1669   0.0000  -0.4636  -1.3875  -1.9527
  22 H   :2px   -0.0000   0.0000  -0.0000   0.0758   0.0000   0.0000  -0.0000
  23 H   :2py   -0.0364   0.1294   0.0112   0.0000   0.0785  -0.1091  -0.1662
  24 H   :2pz   -0.0083  -0.2088  -0.0668   0.0000  -0.0792  -0.1557  -0.1327

    Orbital        15       16       17       18       19       20       21
   1 O   :1s     0.0000  -0.5248   0.0000  -0.0000  -0.1277   0.0023   0.0000
   2 O   :1s     0.0000  -2.0419   0.0000  -0.0000  -0.6937  -0.0291   0.0000
   3 O   :1s    -0.0000   3.6734  -0.0000   0.0000  -0.8380  -0.5542   0.0000
   4 O   :2px    0.0000   0.0000   0.1014  -0.0000  -0.0000   0.0000   0.0000
   5 O   :2py    0.0000  -0.0000   0.0000  -0.2966   0.0000  -0.0000  -0.9734
   6 O   :2pz   -0.0000   0.3530   0.0000   0.0000   0.7158   0.2359  -0.0000
   7 O   :2px   -0.0000   0.0000  -0.7715   0.0000  -0.0000  -0.0000  -0.0000
   8 O   :2py   -0.0000   0.0000  -0.0000   1.2285  -0.0000  -0.0000  -0.8109
   9 O   :2pz    0.0000  -1.7148  -0.0000  -0.0000   0.1648  -0.3939   0.0000
  10 O   :3d2-  -0.1322  -0.0000   0.0000  -0.0000  -0.0000   0.0000   0.0000
  11 O   :3d1-   0.0000  -0.0000   0.0000  -0.0718   0.0000   0.0000   0.8067
  12 O   :3d0    0.0000  -0.1514  -0.0000  -0.0000  -0.0689   0.7805  -0.0000
  13 O   :3d1+  -0.0000  -0.0000  -0.1616   0.0000  -0.0000   0.0000   0.0000
  14 O   :3d2+   0.0000   0.0739   0.0000  -0.0000  -0.2336   0.2734  -0.0000
  15 H   :1s     0.0000  -1.9448  -0.0000  -0.8424   0.7899   0.3073   1.7065
  16 H   :1s    -0.0000   0.7329   0.0000   0.3857  -0.1635  -0.0774  -0.3824
  17 H   :2px   -0.6853  -0.0000   0.7623  -0.0000   0.0000  -0.0000  -0.0000
  18 H   :2py    0.0000   0.2605   0.0000  -0.5706  -0.9189   0.1631  -0.9166
  19 H   :2pz   -0.0000   0.1370   0.0000  -0.5649   0.3695   0.7679   0.8381
  20 H   :1s    -0.0000  -1.9448  -0.0000   0.8424   0.7899   0.3073  -1.7065
  21 H   :1s     0.0000   0.7329   0.0000  -0.3857  -0.1635  -0.0774   0.3824
  22 H   :2px    0.6853  -0.0000   0.7623  -0.0000   0.0000  -0.0000   0.0000
  23 H   :2py    0.0000  -0.2605  -0.0000  -0.5706   0.9189  -0.1631  -0.9166
  24 H   :2pz    0.0000   0.1370   0.0000   0.5649   0.3695   0.7679  -0.8381

    Orbital        22
   7 O   :2px   -0.3078
  13 O   :3d1+   1.0423
  17 H   :2px    0.3991
  22 H   :2px    0.3991

 Printout of CI-coefficients abs greater than 0.05000 for root  1
 *** NOTE: this root is the reference state ***

 Printout of coefficients in interval  3.1623E-01 to  1.0000E+00
 ===============================================================

  Coefficient of CSF no.         1 is      0.97768481    9.77684813E-01
  Orbital          1   2   3   4   5
  Spin coupling    2   2   2   2   2

 Printout of coefficients in interval  1.0000E-01 to  3.1623E-01
 ===============================================================
   ( no coefficients )

 Printout of coefficients in interval  5.0000E-02 to  1.0000E-01
 ===============================================================

  Coefficient of CSF no.         3 is     -0.05765307   -5.76530654E-02
  Orbital          1   2   3   5   6
  Spin coupling    2   2   2   2   2

  Coefficient of CSF no.        24 is     -0.06676981   -6.67698075E-02
  Orbital          1   2   4   5   8
  Spin coupling    2   2   2   2   2

  Coefficient of CSF no.       253 is     -0.05156630   -5.15663037E-02
  Orbital          1   2   3   4  11
  Spin coupling    2   2   2   2   2

  Coefficient of CSF no.     15664 is     -0.07269417   -7.26941658E-02
  Orbital          1   2   5   3   4   6   8
  Spin coupling    2   2   2   1  -1   1  -1

 Norm of printed CI vector ..      0.97159320

 Magnitude of CI coefficients
 ============================
 ( Ranges are relative to norm of vector :  1.00E+00 )

  10- 1 to 10- 0         1    0.95586759E+00      0.9558675936
  10- 2 to 10- 1        49    0.41073340E-01      0.9969409335
  10- 3 to 10- 2       236    0.28335855E-02      0.9997745191
  10- 4 to 10- 3      1422    0.21872237E-03      0.9999932414
  10- 5 to 10- 4      4022    0.66203359E-05      0.9999998618
  10- 6 to 10- 5      7638    0.13571432E-06      0.9999999975
  10- 7 to 10- 6     12617    0.25020487E-08      1.0000000000
  10- 8 to 10- 7     11151    0.26857965E-10      1.0000000000
  10- 9 to 10- 8      5261    0.15159334E-12      1.0000000000
  10-10 to 10- 9      1055    0.36720011E-15      1.0000000000
  10-11 to 10-10       109    0.42876143E-18      1.0000000000
  Number of coefficients less than 10^-11 times norm is       126323

  Total CPU  time used in SIRIUS :  1 minute  31 seconds
  Total wall time used in SIRIUS :  1 minute  31 seconds

 
     Date and time (Linux)  : Sat Apr 13 12:04:20 2024
     Host name              : node103                                 

 NOTE:    1 warnings have been issued.
 Check output, result, and error files for "WARNING".


                     .---------------------------------------.
                     | End of Wave Function Section (SIRIUS) |
                     `---------------------------------------'

  Total CPU  time used in DALTON:  1 minute  31 seconds
  Total wall time used in DALTON:  1 minute  31 seconds

 
     Date and time (Linux)  : Sat Apr 13 12:04:20 2024
     Host name              : node103                                 
