[Molden Format]
[GTO]
    1 0
 s   9 1.00
   11720.0000000    0.0007100000
    1759.0000000    0.0054700000
     400.8000000    0.0278370000
     113.7000000    0.1048000000
      37.0300000    0.2830620000
      13.2700000    0.4487190000
       5.0250000    0.2709520000
       1.0130000    0.0154580000
       0.3023000   -0.0025850000
 s   9 1.00
   11720.0000000   -0.0001600000
    1759.0000000   -0.0012630000
     400.8000000   -0.0062670000
     113.7000000   -0.0257160000
      37.0300000   -0.0709240000
      13.2700000   -0.1654110000
       5.0250000   -0.1169550000
       1.0130000    0.5573680000
       0.3023000    0.5727590000
 s   9 1.00
   11720.0000000    0.0000000000
    1759.0000000    0.0000000000
     400.8000000    0.0000000000
     113.7000000    0.0000000000
      37.0300000    0.0000000000
      13.2700000    0.0000000000
       5.0250000    0.0000000000
       1.0130000    0.0000000000
       0.3023000    1.0000000000
 p   4 1.00
      17.7000000    0.0430180000
       3.8540000    0.2289130000
       1.0460000    0.5087280000
       0.2753000    0.4605310000
 p   4 1.00
      17.7000000    0.0000000000
       3.8540000    0.0000000000
       1.0460000    0.0000000000
       0.2753000    1.0000000000
 d   1 1.00
       1.1850000    1.0000000000

    2 0
 s   4 1.00
      13.0100000    0.0196850000
       1.9620000    0.1379770000
       0.4446000    0.4781480000
       0.1220000    0.5012400000
 s   4 1.00
      13.0100000    0.0000000000
       1.9620000    0.0000000000
       0.4446000    0.0000000000
       0.1220000    1.0000000000
 p   1 1.00
       0.7270000    1.0000000000

    3 0
 s   4 1.00
      13.0100000    0.0196850000
       1.9620000    0.1379770000
       0.4446000    0.4781480000
       0.1220000    0.5012400000
 s   4 1.00
      13.0100000    0.0000000000
       1.9620000    0.0000000000
       0.4446000    0.0000000000
       0.1220000    1.0000000000
 p   1 1.00
       0.7270000    1.0000000000

[SCFCONV]
scf-first  1  THROUGH   9
      -75.8501806543
      -76.0170028846
      -76.0259539163
      -76.0267038510
      -76.0267353089
      -76.0267413656
      -76.0267418916
      -76.0267418985
      -76.0267418987
[TITLE]
*** Dalton interface to Molden, wave function type : MC-SCF        13Apr24   12:
[Atoms] AU
O          1     8         0.0000000000         0.0000000000         0.124144424
H          2     1         0.0000000000         1.4315300000        -0.985265576
H          3     1         0.0000000000        -1.4315300000        -0.985265576
[5D7F]
[9G]
[MO]
Sym= A
Ene=    0.0000
Spin= Alpha
Occup=  2.0000
    1       -1.000537
    2        0.007134
    3        0.001830
    6        0.006040
    9       -0.000867
   10       -0.000100
   13        0.000153
   15        0.001531
   16       -0.001320
   18       -0.000743
   19        0.000736
   20        0.001531
   21       -0.001320
   23        0.000743
   24        0.000736
Sym= A
Ene=    0.0000
Spin= Alpha
Occup=  1.9871
    1       -0.003077
    2       -0.921457
    3        0.061564
    6       -0.141332
    9       -0.069973
   10        0.004383
   13        0.002070
   15       -0.198189
   16        0.100980
   18        0.024362
   19       -0.021623
   20       -0.198189
   21        0.100980
   23       -0.024362
   24       -0.021623
Sym= A
Ene=    0.0000
Spin= Alpha
Occup=  1.9697
    5       -0.725874
    8        0.120818
   12        0.026300
   15       -0.558238
   16        0.185839
   18        0.019857
   19       -0.029910
   20        0.558238
   21       -0.185839
   23        0.019857
   24        0.029910
Sym= A
Ene=    0.0000
Spin= Alpha
Occup=  1.9714
    1       -0.000267
    2        0.011450
    3       -0.222489
    6       -0.792880
    9        0.029683
   10        0.017554
   13       -0.005073
   15        0.445010
   16       -0.180048
   18       -0.039214
   19       -0.004386
   20        0.445010
   21       -0.180048
   23        0.039214
   24       -0.004386
Sym= A
Ene=    0.0000
Spin= Alpha
Occup=  1.9815
    4        0.913410
    7        0.078892
   11       -0.018076
   17        0.031926
   22        0.031926
Sym= A
Ene=    0.0000
Spin= Alpha
Occup=  0.0245
    1       -0.101884
    2       -0.774212
    3        0.157500
    6        1.263087
    9       -0.850557
   10       -0.009003
   13        0.001110
   15        0.855119
   16       -0.336324
   18       -0.046230
   19       -0.007149
   20        0.855119
   21       -0.336324
   23        0.046230
   24       -0.007149
Sym= A
Ene=    0.0000
Spin= Alpha
Occup=  0.0011
    5       -0.458592
    8        1.238114
   12       -0.874132
   15       -1.387867
   16        0.730376
   18        0.095316
   19        0.211861
   20        1.387867
   21       -0.730376
   23        0.095316
   24       -0.211861
Sym= A
Ene=    0.0000
Spin= Alpha
Occup=  0.0272
    5       -1.301321
    8        0.581969
   12       -0.030709
   15        0.982784
   16       -0.332943
   18       -0.036404
   19        0.008288
   20       -0.982784
   21        0.332943
   23       -0.036404
   24       -0.008288
Sym= A
Ene=    0.0000
Spin= Alpha
Occup=  0.0041
    1       -0.166157
    2       -0.729180
    3        0.990388
    6        0.012439
    9       -0.012886
   10        0.639078
   13        0.371747
   15       -0.343630
   16        0.194158
   18       -0.129353
   19       -0.208835
   20       -0.343630
   21        0.194158
   23        0.129353
   24       -0.208835
Sym= A
Ene=    0.0000
Spin= Alpha
Occup=  0.0113
    1        0.508070
    2        2.556443
    3       -2.544755
    6        0.628089
    9       -0.924129
   10        0.065011
   13        0.036110
   15       -0.272203
   16        0.166916
   18       -0.011180
   19       -0.066761
   20       -0.272203
   21        0.166916
   23        0.011180
   24       -0.066761
Sym= A
Ene=    0.0000
Spin= Alpha
Occup=  0.0176
    4       -1.410963
    7        1.612201
   11       -0.018931
   17        0.075828
   22        0.075828
Sym= A
Ene=    0.0000
Spin= Alpha
Occup=  0.0046
    5       -0.557881
    8        1.106384
   12        0.607507
   15       -0.667870
   16        0.463609
   18        0.078493
   19        0.079174
   20        0.667870
   21       -0.463609
   23        0.078493
   24       -0.079174
Sym= A
Ene=    0.0000
Spin= Alpha
Occup=  0.0000
    1       -0.244997
    2       -0.958395
    3        2.008757
    6        0.096911
    9       -0.280473
   10        0.060979
   13       -0.037084
   15        0.682480
   16       -1.387458
   18        0.109133
   19       -0.155691
   20        0.682480
   21       -1.387458
   23       -0.109133
   24       -0.155691
Sym= A
Ene=    0.0000
Spin= Alpha
Occup=  0.0000
    5        0.392534
    8       -1.346109
   12        0.028387
   15       -0.346603
   16        1.952728
   18       -0.166188
   19        0.132727
   20        0.346603
   21       -1.952728
   23       -0.166188
   24       -0.132727
Sym= A
Ene=    0.0000
Spin= Alpha
Occup=  0.0000
   14       -0.132165
   17       -0.685308
   22        0.685308
Sym= A
Ene=    0.0000
Spin= Alpha
Occup=  0.0000
    1       -0.524751
    2       -2.041878
    3        3.673423
    6        0.352989
    9       -1.714784
   10       -0.151441
   13        0.073931
   15       -1.944776
   16        0.732935
   18        0.260468
   19        0.136977
   20       -1.944776
   21        0.732935
   23       -0.260468
   24        0.136977
Sym= A
Ene=    0.0000
Spin= Alpha
Occup=  0.0000
    4        0.101404
    7       -0.771504
   11       -0.161578
   17        0.762345
   22        0.762345
Sym= A
Ene=    0.0000
Spin= Alpha
Occup=  0.0000
    5       -0.296603
    8        1.228517
   12       -0.071804
   15       -0.842412
   16        0.385675
   18       -0.570650
   19       -0.564899
   20        0.842412
   21       -0.385675
   23       -0.570650
   24        0.564899
Sym= A
Ene=    0.0000
Spin= Alpha
Occup=  0.0000
    1       -0.127708
    2       -0.693691
    3       -0.837957
    6        0.715788
    9        0.164840
   10       -0.068916
   13       -0.233568
   15        0.789864
   16       -0.163486
   18       -0.918876
   19        0.369473
   20        0.789864
   21       -0.163486
   23        0.918876
   24        0.369473
Sym= A
Ene=    0.0000
Spin= Alpha
Occup=  0.0000
    1        0.002308
    2       -0.029135
    3       -0.554218
    6        0.235930
    9       -0.393896
   10        0.780542
   13        0.273448
   15        0.307308
   16       -0.077385
   18        0.163142
   19        0.767900
   20        0.307308
   21       -0.077385
   23       -0.163142
   24        0.767900
Sym= A
Ene=    0.0000
Spin= Alpha
Occup=  0.0000
    5       -0.973441
    8       -0.810919
   12        0.806744
   15        1.706517
   16       -0.382425
   18       -0.916583
   19        0.838094
   20       -1.706517
   21        0.382425
   23       -0.916583
   24       -0.838094
Sym= A
Ene=    0.0000
Spin= Alpha
Occup=  0.0000
    4        0.006743
    7       -0.307836
   11        1.042292
   17        0.399103
   22        0.399103
Sym= A
Ene=    0.0000
Spin= Alpha
Occup=  0.0000
   14        1.065696
   17       -0.371222
   22        0.371222
Sym= A
Ene=    0.0000
Spin= Alpha
Occup=  0.0000
    1       -0.169378
    2       -0.476020
    3        2.584737
    6       -0.423176
    9       -0.872843
   10        0.412478
   13       -1.081486
   15       -2.105194
   16        0.863649
   18        0.659796
   19       -0.420894
   20       -2.105194
   21        0.863649
   23       -0.659796
   24       -0.420894
[End of Molden output from Dalton]
