

     ************************************************************************
     *************** Dalton - An Electronic Structure Program ***************
     ************************************************************************

    This is output from DALTON release Dalton2022.0-dev (2022)
         ( Web site: http://daltonprogram.org )

   ----------------------------------------------------------------------------

    NOTE:
     
    Dalton is an experimental code for the evaluation of molecular
    properties using (MC)SCF, DFT, CI, and CC wave functions.
    The authors accept no responsibility for the performance of
    the code or for the correctness of the results.
     
    The code (in whole or part) is provided under a licence and
    is not to be reproduced for further distribution without
    the written permission of the authors or their representatives.
     
    See the home page "http://daltonprogram.org" for further information.
     
    If results obtained with this code are published,
    the appropriate citations would be both of:
     
       K. Aidas, C. Angeli, K. L. Bak, V. Bakken,
       R. Bast, L. Boman, O. Christiansen, R. Cimiraglia,
       S. Coriani, P. Dahle, E. K. Dalskov, U. Ekstroem,
       T. Enevoldsen, J. J. Eriksen, P. Ettenhuber, B. Fernandez,
       L. Ferrighi, H. Fliegl, L. Frediani, K. Hald, A. Halkier,
       C. Haettig, H. Heiberg, T. Helgaker, A. C. Hennum,
       H. Hettema, E. Hjertenaes, S. Hoest, I.-M. Hoeyvik,
       M. F. Iozzi, B. Jansik, H. J. Aa. Jensen, D. Jonsson,
       P. Joergensen, J. Kauczor, S. Kirpekar,
       T. Kjaergaard, W. Klopper, S. Knecht, R. Kobayashi, H. Koch,
       J. Kongsted, A. Krapp, K. Kristensen, A. Ligabue,
       O. B. Lutnaes, J. I. Melo, K. V. Mikkelsen, R. H. Myhre,
       C. Neiss, C. B. Nielsen, P. Norman, J. Olsen,
       J. M. H. Olsen, A. Osted, M. J. Packer, F. Pawlowski,
       T. B. Pedersen, P. F. Provasi, S. Reine, Z. Rinkevicius,
       T. A. Ruden, K. Ruud, V. Rybkin, P. Salek, C. C. M. Samson,
       A. Sanchez de Meras, T. Saue, S. P. A. Sauer,
       B. Schimmelpfennig, K. Sneskov, A. H. Steindal,
       K. O. Sylvester-Hvid, P. R. Taylor, A. M. Teale,
       E. I. Tellgren, D. P. Tew, A. J. Thorvaldsen, L. Thoegersen,
       O. Vahtras, M. A. Watson, D. J. D. Wilson, M. Ziolkowski
       and H. Agren,
       "The Dalton quantum chemistry program system",
       WIREs Comput. Mol. Sci. 2014, 4:269-284 (doi: 10.1002/wcms.1172)
     
    and
     
       Dalton, a molecular electronic structure program,
       Release Dalton2022.0-dev (2022), see http://daltonprogram.org
   ----------------------------------------------------------------------------

    Authors in alphabetical order (Major contribution(s) in parenthesis):

  Kestutis Aidas,              Vilnius University,        Lithuania   (QM/MM)
  Celestino Angeli,            University of Ferrara,     Italy       (NEVPT2)
  Juan J. Aucar,               Northeast National UniversiArgentina   (LRESC, Relativistic Effects on EFG)
  Keld L. Bak,                 UNI-C,                     Denmark     (AOSOPPA, non-adiabatic coupling, magnetic properties)
  Vebjoern Bakken,             University of Oslo,        Norway      (DALTON; geometry optimizer, symmetry detection)
  Radovan Bast,                UiT The Arctic U. of NorwayNorway      (DALTON installation and execution frameworks)
  Pablo Baudin,                University of Valencia,    Spain       (Cholesky excitation energies)
  Linus Boman,                 NTNU,                      Norway      (Cholesky decomposition and subsystems)
  Bruno N. Cabral Tenorio,     Technical Univ. of Denmark,Denmark     (Lanczos-based CC methods)
  Ove Christiansen,            Aarhus University,         Denmark     (CC module)
  Renzo Cimiraglia,            University of Ferrara,     Italy       (NEVPT2)
  Sonia Coriani,               Technical Univ. of Denmark,Denmark     (CC and RESPONS modules)
  Janusz Cukras,               University of Warsaw,      Poland      (MChD in RESPONS)
  Paal Dahle,                  University of Oslo,        Norway      (Parallelization)
  Erik K. Dalskov,             UNI-C,                     Denmark     (SOPPA)
  Thomas Enevoldsen,           Univ. of Southern Denmark, Denmark     (SOPPA)
  Janus J. Eriksen,            Aarhus University,         Denmark     (Polarizable embedding, TDA)
  Rasmus Faber,                Technical Univ. of Denmark,Denmark     (Vib.avg. NMR w. SOPPA, parallel AO-SOPPA, CVS-CC and EOMCC)
  Tobias Fahleson,             KTH Stockholm,             Sweden      (Damped cubic response)
  Berta Fernandez,             U. of Santiago de CompostelSpain       (Doublet spin, ESR in RESPONS)
  Lara Ferrighi,               Aarhus University,         Denmark     (PCM Cubic response)
  Heike Fliegl,                University of Oslo,        Norway      (CCSD(R12))
  Luca Frediani,               UiT The Arctic U. of NorwayNorway      (PCM)
  Emmanuel Fromager,           Univ. Strasbourg,          France      (MC-srDFT)
  Bin Gao,                     UiT The Arctic U. of NorwayNorway      (Gen1Int library)
  Andre S. P. Gomes,           CNRS/Universite de Lille,  France      (Frozen density embedding)
  Christof Haettig,            Ruhr-University Bochum,    Germany     (CC module)
  Kasper Hald,                 Aarhus University,         Denmark     (CC module)
  Asger Halkier,               Aarhus University,         Denmark     (CC module)
  Frederik Beyer Hansen,       University of Copenhagen,  Denmark     (Parallel AO-SOPPA)
  Erik D. Hedegaard,           Univ. of Southern Denmark, Denmark     (Polarizable embedding, QM/MM, and MC-srDFT)
  Hanne Heiberg,               University of Oslo,        Norway      (Geometry analysis, selected one-electron integrals)
  Trygve Helgaker,             University of Oslo,        Norway      (DALTON; ABACUS, ERI, DFT modules, London, and much more)
  Alf Christian Hennum,        University of Oslo,        Norway      (Parity violation)
  Hinne Hettema,               University of Auckland,    New Zealand (Quadratic response in RESPONS; SIRIUS supersymmetry)
  Andreas E. Hillers-Bendtsen, University of Copenhagen,  Denmark     (MP3)
  Eirik Hjertenaes,            NTNU,                      Norway      (Cholesky decomposition)
  Nicolai Machholdt Hoeyer,    Aarhus University,         Denmark     (MP3)
  Pi A. B. Haase,              University of Copenhagen,  Denmark     (Triplet AO-SOPPA)
  Maria Francesca Iozzi,       University of Oslo,        Norway      (RPA)
  Christoph Jacob,             TU Braunschweig            Germany     (Frozen density embedding)
  Brano Jansik,                Technical Univ. of Ostrava Czech Rep.  (DFT cubic response)
  Hans Joergen Aa. Jensen,     Univ. of Southern Denmark, Denmark     (DALTON; SIRIUS, RESPONS, ABACUS, MC-srDFT, and much more)
  Dan Jonsson,                 UiT The Arctic U. of NorwayNorway      (Cubic response in RESPONS module)
  Poul Joergensen,             Aarhus University,         Denmark     (RESPONS, ABACUS, and CC modules)
  Maciej Kaminski,             University of Warsaw,      Poland      (CPPh in RESPONS)
  Joanna Kauczor,              Linkoeping University,     Sweden      (Complex polarization propagator (CPP) module)
  Sheela Kirpekar,             Univ. of Southern Denmark, Denmark     (Mass-velocity & Darwin integrals)
  Frederik Oersted Kjeldal,    Technical Univ. of Denmark,Denmark     (MP3)
  Erik Kjellgren,              Univ. of Southern Denmark, Denmark     (MC-srDFT)
  Wim Klopper,                 KIT Karlsruhe,             Germany     (R12 code in CC, SIRIUS, and ABACUS modules)
  Stefan Knecht,               ETH Zurich,                Switzerland (Parallel CI and MCSCF, MC-srDFT)
  Rika Kobayashi,              Australian National Univ., Australia   (DIIS in CC, London in MCSCF)
  Henrik Koch,                 NTNU,                      Norway      (CC module, Cholesky decomposition)
  Jacob Kongsted,              Univ. of Southern Denmark, Denmark     (Polarizable embedding, polarizable density embedding, QM/MM)
  Andrea Ligabue,              University of Modena,      Italy       (CTOCD, AOSOPPA)
  Nanna H. List,               Univ. of Southern Denmark, Denmark     (Polarizable embedding)
  Ola B. Lutnaes,              University of Oslo,        Norway      (DFT Hessian)
  Juan I. Melo,                University of Buenos Aires,Argentina   (LRESC, Relativistic Effects on NMR Shieldings)
  Kurt V. Mikkelsen,           University of Copenhagen,  Denmark     (MC-SCRF, QM/MM, and MP3)
  Rolf H. Myhre,               NTNU,                      Norway      (Subsystems and CC3)
  Christian Neiss,             Univ. Erlangen-Nuernberg,  Germany     (CCSD(R12))
  Christian B. Nielsen,        University of Copenhagen,  Denmark     (QM/MM)
  Patrick Norman,              KTH Stockholm,             Sweden      (Cubic response and complex frequency response in RESPONS)
  Jeppe Olsen,                 Aarhus University,         Denmark     (SIRIUS CI/density modules)
  Jogvan Magnus H. Olsen,      Aarhus University,         Denmark     (Polarizable embedding and polarizable density embedding)
  Anders Osted,                Copenhagen University,     Denmark     (QM/MM)
  Martin J. Packer,            University of Sheffield,   UK          (SOPPA)
  Filip Pawlowski,             Kazimierz Wielki UniversityPoland      (CC3)
  Morten N. Pedersen,          Univ. of Southern Denmark, Denmark     (Polarizable embedding)
  Thomas B. Pedersen,          University of Oslo,        Norway      (Cholesky decomposition)
  Patricio F. Provasi,         University of Northeastern,Argentina   (Analysis of coupling constants in localized orbitals)
  Peter Reinholdt,             Univ. of Southern Denmark, Denmark     (Polarizable embedding and polarizable density embedding)
  Zilvinas Rinkevicius,        KTH Stockholm,             Sweden      (open-shell DFT, ESR)
  Elias Rudberg,               KTH Stockholm,             Sweden      (DFT grid and basis info)
  Torgeir A. Ruden,            University of Oslo,        Norway      (Numerical derivatives in ABACUS)
  Kenneth Ruud,                UiT The Arctic U. of NorwayNorway      (DALTON; ABACUS magnetic properties and much more)
  Pawel Salek,                 KTH Stockholm,             Sweden      (DALTON; DFT code)
  Claire C. M. Samson,         University of Karlsruhe    Germany     (Boys localization, r12 integrals in ERI)
  Alfredo Sanchez de Meras,    University of Valencia,    Spain       (CC module, Cholesky decomposition)
  Trond Saue,                  Paul Sabatier University,  France      (direct Fock matrix construction)
  Stephan P. A. Sauer,         University of Copenhagen,  Denmark     (SOPPA(CCSD), SOPPA prop., AOSOPPA, vibrational g-factors)
  Bernd Schimmelpfennig,       Forschungszentrum KarlsruheGermany     (AMFI module)
  Anna K. Schnack-Petersen,    University of Copenhagen,  Denmark     (RPA(D) and HRPA(D) properties in AOSOPPA)
  Kristian Sneskov,            Aarhus University,         Denmark     (Polarizable embedding, QM/MM)
  Arnfinn H. Steindal,         UiT The Arctic U. of NorwayNorway      (parallel QM/MM, polarizable embedding)
  Casper Steinmann,            Aalborg University,        Denmark     (QFIT, polarizable embedding)
  K. O. Sylvester-Hvid,        University of Copenhagen,  Denmark     (MC-SCRF)
  Peter R. Taylor,             VLSCI/Univ. of Melbourne,  Australia   (Symmetry handling ABACUS, integral transformation)
  Andrew M. Teale,             University of Nottingham,  England     (DFT-AC, DFT-D)
  David P. Tew,                University of Bristol,     England     (CCSD(R12))
  Julien Toulouse,             Sorbonne Univ.,            France      (MC-srDFT)
  Olav Vahtras,                KTH Stockholm,             Sweden      (Triplet response, spin-orbit, ESR, TDDFT, open-shell DFT)
  Lucas Visscher,              Vrije Universiteit AmsterdaNetherlands (Frozen density embedding)
  David J. Wilson,             La Trobe University,       Australia   (DFT Hessian and DFT magnetizabilities)
  Luna Zamok,                  University of Copenhagen,  Denmark     (Block Lanczos RPA solver in SOPPA module)
  Hans Agren,                  KTH Stockholm,             Sweden      (SIRIUS module, RESPONS, MC-SCRF solvation)
 --------------------------------------------------------------------------------

     Date and time (Linux)  : Sat Apr 13 12:03:43 2024
     Host name              : node103                                 

 * Work memory size             :    64000000 =  488.28 megabytes.

 * Directories for basis set searches:
   1) /home1/s4925076/dalton-files/Sample_inputs_dalton2024_updated/ex4/h2o_mcscf
   2) /home3/hb-qchav/Dalton/basis


Compilation information
-----------------------

 Who compiled             | p256146
 Host                     | login1
 System                   | Linux-4.18.0-425.13.1.el8_7.x86_64
 CMake generator          | Unix Makefiles
 Processor                | x86_64
 64-bit integers          | OFF
 MPI                      | ON
 Fortran compiler         | /cvmfs/hpc.rug.nl/versions/2023.01/rocky8/x86_64/a
                          | md/zen3/software/impi/2021.7.1-intel-compilers-202
                          | 2.2.1/mpi/2021.7.1/bin/mpiifort
 Fortran compiler version | unknown
 C compiler               | /cvmfs/hpc.rug.nl/versions/2023.01/rocky8/x86_64/a
                          | md/zen3/software/impi/2021.7.1-intel-compilers-202
                          | 2.2.1/mpi/2021.7.1/bin/mpiicc
 C compiler version       | unknown
 C++ compiler             | /cvmfs/hpc.rug.nl/versions/2023.01/rocky8/x86_64/a
                          | md/zen3/software/impi/2021.7.1-intel-compilers-202
                          | 2.2.1/mpi/2021.7.1/bin/mpiicpc
 C++ compiler version     | unknown
 BLAS                     | /cvmfs/hpc.rug.nl/versions/2023.01/rocky8/x86_64/a
                          | md/zen3/software/imkl/2022.2.1/mkl/2022.2.1/lib/in
                          | tel64/libmkl_intel_lp64.so;/cvmfs/hpc.rug.nl/versi
                          | ons/2023.01/rocky8/x86_64/amd/zen3/software/imkl/2
                          | 022.2.1/mkl/2022.2.1/lib/intel64/libmkl_sequential
                          | .so;/cvmfs/hpc.rug.nl/versions/2023.01/rocky8/x86_
                          | 64/amd/zen3/software/imkl/2022.2.1/mkl/2022.2.1/li
                          | b/intel64/libmkl_core.so;/usr/lib64/libpthread.so;
                          | /usr/lib64/libm.so
 LAPACK                   | /cvmfs/hpc.rug.nl/versions/2023.01/rocky8/x86_64/a
                          | md/zen3/software/imkl/2022.2.1/mkl/2022.2.1/lib/in
                          | tel64/libmkl_lapack95_lp64.a;/cvmfs/hpc.rug.nl/ver
                          | sions/2023.01/rocky8/x86_64/amd/zen3/software/imkl
                          | /2022.2.1/mkl/2022.2.1/lib/intel64/libmkl_intel_lp
                          | 64.so
 Static linking           | OFF
 Last Git revision        | 4d6ac05be54d7f9c5fe49e0ac32a42491a6c6955
 Git branch               | master
 Configuration time       | 2023-04-05 13:35:07.780405

 * Sequential calculation.


   Content of the .dal input file
 ----------------------------------

**DALTON INPUT
.RUN WAVEFUNCTION
**WAVE FUNCTIONS
.HF
.MCSCF
*CONFIGURATION INPUT
.SYMMETRY
 1
.SPIN MUL
 1
.ELECTRONS
10
.CAS SPACE
10 0 0 0
**END OF DALTON INPUT


   Content of the .mol file
 ----------------------------

BASIS
cc-pVDZ
Calculation of excitation energies through ABACUS

Atomtypes=2 Multiplicity=1 Charge=0 Nosymmetry
Charge=8.0 Atoms=1
O   0.00000             0.00000              0.1241444240
Charge=1.0 Atoms=2
H   0.00000             1.43153              -0.985265576
H   0.00000            -1.43153              -0.985265576


       *******************************************************************
       *********** Output from DALTON general input processing ***********
       *******************************************************************

 --------------------------------------------------------------------------------
   Overall default print level:    0
   Print level for DALTON.STAT:    1

    HERMIT 1- and 2-electron integral sections will be executed
    "Old" integral transformation used (limited to max 255 basis functions)
    Wave function sections will be executed (SIRIUS module)
 --------------------------------------------------------------------------------


   ****************************************************************************
   *************** Output of molecule and basis set information ***************
   ****************************************************************************


    The two title cards from your ".mol" input:
    --------------------------------------------------------------------------------
 1: Calculation of excitation energies through ABACUS
 2: 
    --------------------------------------------------------------------------------

  Atomic type no.    1
  --------------------
  Nuclear charge:   8.00000
  Number of symmetry independent centers:    1
  Number of basis sets to read;    2
  Basis set file used for this atomic type with Z =   8 :
     "/home3/hb-qchav/Dalton/basis/cc-pVDZ"

  Atomic type no.    2
  --------------------
  Nuclear charge:   1.00000
  Number of symmetry independent centers:    2
  Number of basis sets to read;    2
  Basis set file used for this atomic type with Z =   1 :
     "/home3/hb-qchav/Dalton/basis/cc-pVDZ"


                         SYMGRP: Point group information
                         -------------------------------

@    Point group: C1 


                                 Isotopic Masses
                                 ---------------

                           O          15.994915
                           H           1.007825
                           H           1.007825

                       Total mass:    18.010565 amu
                       Natural abundance:  99.730 %

 Center-of-mass coordinates (a.u.):    0.000000    0.000000   -0.000015
 Center-of-mass coordinates (Angs):    0.000000    0.000000   -0.000008


  Atoms and basis sets
  --------------------

  Number of atom types :    2
  Total number of atoms:    3

  Basis set used is "cc-pVDZ" from the basis set library.

  label    atoms   charge   prim   cont     basis
  ----------------------------------------------------------------------
  O           1    8.0000    26    14      [9s4p1d|3s2p1d]                                    
  H           2    1.0000     7     5      [4s1p|2s1p]                                        
  ----------------------------------------------------------------------
  total:      3   10.0000    40    24
  ----------------------------------------------------------------------
  Spherical harmonic basis used.

  Threshold for neglecting AO integrals:  1.00D-12


  Cartesian Coordinates (a.u.)
  ----------------------------

  Total number of coordinates:    9
  O       :     1  x   0.0000000000    2  y   0.0000000000    3  z   0.1241444240
  H       :     4  x   0.0000000000    5  y   1.4315300000    6  z  -0.9852655760
  H       :     7  x   0.0000000000    8  y  -1.4315300000    9  z  -0.9852655760


   Interatomic separations (in Angstrom):
   --------------------------------------

            O           H           H     
            ------      ------      ------
 O     :    0.000000
 H     :    0.958391    0.000000
 H     :    0.958391    1.515066    0.000000


  Max    interatomic separation is    1.5151 Angstrom (    2.8631 Bohr)
  between atoms    3 and    2, "H     " and "H     ".

  Min HX interatomic separation is    0.9584 Angstrom (    1.8111 Bohr)


  Bond distances (Angstrom):
  --------------------------

                  atom 1     atom 2       distance
                  ------     ------       --------
  bond distance:  H          O            0.958391
  bond distance:  H          O            0.958391


  Bond angles (degrees):
  ----------------------

                  atom 1     atom 2     atom 3         angle
                  ------     ------     ------         -----
  bond angle:     H          O          H            104.450




 Principal moments of inertia (u*A**2) and principal axes
 --------------------------------------------------------

   IA       0.616959          0.000000    1.000000    0.000000
   IB       1.156694          0.000000    0.000000    1.000000
   IC       1.773652          1.000000    0.000000    0.000000


 Rotational constants
 --------------------

@    The molecule is planar.

               A                   B                   C

         819145.5126         436916.9575         284936.9149 MHz
           27.323753           14.573981            9.504472 cm-1


@  Nuclear repulsion energy :    9.183706230245 Hartree


                     .---------------------------------------.
                     | Starting in Integral Section (HERMIT) |
                     `---------------------------------------'



 ***************************************************************************************
 ****************** Output from **INTEGRALS input processing (HERMIT) ******************
 ***************************************************************************************


 - Using defaults, no **INTEGRALS input found

 Default print level:        1

 Calculation of one- and two-electron Hamiltonian integrals.

 Center of mass  (bohr):      0.000000000000      0.000000000000     -0.000015049426
 Operator center (bohr):      0.000000000000      0.000000000000      0.000000000000
 Gauge origin    (bohr):      0.000000000000      0.000000000000      0.000000000000
 Dipole origin   (bohr):      0.000000000000      0.000000000000      0.000000000000

Calculation of 2-electron integrals are postponed until they are needed.


     ************************************************************************
     ************************** Output from HERINT **************************
     ************************************************************************



                      Nuclear contribution to dipole moments
                      --------------------------------------

                 au               Debye          C m (/(10**-30)

      x      0.00000000         0.00000000         0.00000000
      y      0.00000000         0.00000000         0.00000000
      z     -0.97737576        -2.48424123        -8.28653678


  Total CPU  time used in HERMIT:   0.00 seconds
  Total wall time used in HERMIT:   0.00 seconds


                        .----------------------------------.
                        | End of Integral Section (HERMIT) |
                        `----------------------------------'



                   .--------------------------------------------.
                   | Starting in Wave Function Section (SIRIUS) |
                   `--------------------------------------------'


 *** Output from Huckel module :

     Using EWMO model:          T
     Using EHT  model:          F
     Number of Huckel orbitals each symmetry:    7

 EWMO - Energy Weighted Maximum Overlap - is a Huckel type method,
        which normally is better than Extended Huckel Theory.
 Reference: Linderberg and Ohrn, Propagators in Quantum Chemistry (Wiley, 1973)

 Huckel EWMO eigenvalues for symmetry :  1
          -20.684949      -1.610949      -0.778093      -0.688539      -0.616200
           -0.232646      -0.168524

 **********************************************************************
 *SIRIUS* a direct, restricted step, second order MCSCF program       *
 **********************************************************************

 
     Date and time (Linux)  : Sat Apr 13 12:03:43 2024
     Host name              : node103                                 

 Title lines from ".mol" input file:
     Calculation of excitation energies through ABACUS
     

 Print level on unit LUPRI =   2 is   0
 Print level on unit LUW4  =   2 is   5

@    MCSCF optimization.
@              Type: complete active space calculation (CAS).

@    This is a combination run starting with
@              a restricted, closed shell Hartree-Fock calculation


 Initial molecular orbitals are obtained according to
 ".MOSTART EWMO  " input option

     Wave function specification
     ============================
@    Wave function type        --- MC-SCF ---
@    Number of closed shell electrons           0
@    Number of electrons in active shells      10
@    Total charge of the molecule               0

@    Spin multiplicity and 2 M_S                1         0
@    Total number of symmetries                 1 (point group: C1 )
@    Reference state symmetry                   1 (irrep name : A  )

     Orbital specifications
     ======================
@    Abelian symmetry species          All |    1
@                                          |  A  
                                       --- |  ---
@    Inactive orbitals                   0 |    0
@    Active orbitals                    10 |   10
@    Secondary orbitals                 14 |   14
@    Total number of orbitals           24 |   24
@    Number of basis functions          24 |   24

      -- Initial occupation of symmetries is determined from total charge (only one symmetry!)
      -- Initial occupation of symmetries is :
@    Occupied SCF orbitals               5 |    5

     Optimization information
     ========================
@    Number of configurations             19404
@    Number of orbital rotations            140
     ------------------------------------------
@    Total number of variables            19544

     Maximum number of macro iterations      25
     Maximum number of micro iterations     600
     Threshold for MCSCF gradient      1.00D-05
     Number of initial trial vectors          1
     Number of initial CI iterations         -1
     Number of simultaneous trial vectors     1

@    This calculation converges to the lowest state for the specified symmetry and spin species.

     Maximum number of NEO/NR iterations  24


 ***********************************************
 ***** DIIS acceleration of SCF iterations *****
 ***********************************************

 C1-DIIS algorithm; max error vectors =    8

 Iter      Total energy        Error norm    Delta(E)  DIIS dim.
 -----------------------------------------------------------------------------

Calculating AOSUPINT

---> (Re)generating AOTWOINT


     ************************************************************************
     ************************** Output from HERINT **************************
     ************************************************************************


 Threshold for neglecting two-electron integrals:  1.00D-12
 HERMIT - Number of two-electron integrals written:       21643 ( 47.9% )
 HERMIT - Megabytes written:                              0.254

  Total CPU  time used in TWOINT:   0.01 seconds
  Total wall time used in TWOINT:   0.01 seconds
     (Precalculated AO two-electron integrals are transformed to P-supermatrix elements.
      Threshold for discarding integrals :  1.00D-12 )

@  1    -75.8501806543        1.64186D+00   -7.59D+01    1
      Virial theorem: -V/T =      2.000053
@    MULPOP   O      -0.55; H       0.28; H       0.28; 
   1  Level shift: doubly occupied orbital energies shifted by -2.00D-01
 -----------------------------------------------------------------------------
@  2    -76.0170028846        3.42098D-01   -1.67D-01    2
      Virial theorem: -V/T =      2.001775
@    MULPOP   O      -0.27; H       0.14; H       0.14; 
   2  Level shift: doubly occupied orbital energies shifted by -5.00D-02
 -----------------------------------------------------------------------------
@  3    -76.0259539163        8.33760D-02   -8.95D-03    3
      Virial theorem: -V/T =      2.000324
@    MULPOP   O      -0.29; H       0.14; H       0.14; 
   3  Level shift: doubly occupied orbital energies shifted by -1.25D-02
 -----------------------------------------------------------------------------
@  4    -76.0267038510        1.94782D-02   -7.50D-04    4
      Virial theorem: -V/T =      2.000791
@    MULPOP   O      -0.30; H       0.15; H       0.15; 
 -----------------------------------------------------------------------------
@  5    -76.0267353089        8.22598D-03   -3.15D-05    5
      Virial theorem: -V/T =      2.000408
@    MULPOP   O      -0.31; H       0.15; H       0.15; 
 -----------------------------------------------------------------------------
@  6    -76.0267413656        1.67435D-03   -6.06D-06    6
      Virial theorem: -V/T =      2.000541
@    MULPOP   O      -0.31; H       0.15; H       0.15; 
 -----------------------------------------------------------------------------
@  7    -76.0267418916        2.10951D-04   -5.26D-07    7
      Virial theorem: -V/T =      2.000557
@    MULPOP   O      -0.31; H       0.15; H       0.15; 
 -----------------------------------------------------------------------------
@  8    -76.0267418985        3.34690D-05   -6.90D-09    8
      Virial theorem: -V/T =      2.000557
@    MULPOP   O      -0.31; H       0.15; H       0.15; 
 -----------------------------------------------------------------------------
@  9    -76.0267418987        5.52193D-06   -1.44D-10    8

@ *** DIIS converged in   9 iterations !
@     Converged SCF energy, gradient:    -76.026741898674    5.52D-06
    - total time used in SIRFCK :              0.00 seconds

 --- Writing SIRIFC interface file

--------------------------------------------------------------------------------


     .--------------------------------------------------.
     | HF-SCF KT IPs [a.u. & eV] from Koopmans' theorem |
     `--------------------------------------------------'


     HF-SCF KT symmetry 1 ( A  ) in point group C1  -- 5 principal poles with pole strength 1

   ============  ============  ============  ============  ============
      20.550664      1.336160      0.698565      0.566491      0.493087
     559.212007     36.358752     19.008928     15.415000     13.417587
   ============  ============  ============  ============  ============

@ Summary of HF-SCF KT ionization potentials [eV]:

@ Symmetry 1 (A  ) :   559.212      36.359      19.009      15.415      13.418

  === End of HF-SCF KT output ===
--------------------------------------------------------------------------------


 CPU and wall time for SCF :       0.018       0.051


        SIRIUS MCSCF optimization (SIROPT)
 ================================================



 ----- Output from SIRIUS CI module (CICTL) -----




 2-el. integral transformation level 0: Total CPU and WALL times (sec)       0.005       0.005

 (CIST1) 8 lowest diagonal elements:

 Element no. Config.no.    Active energy      Total energy

         1 :          1    -85.2104481289    -76.0267418987
         2 :        253    -84.8673217153    -75.6836154851
         3 :        254    -84.7840433244    -75.6003370941
         4 :        268    -84.7784735779    -75.5947673477
         5 :        269    -84.7018966083    -75.5181903780
         6 :        283    -84.6642311209    -75.4805248907
         7 :        284    -84.5535958795    -75.3698896493
         8 :        256    -84.3823562153    -75.1986499851
First 1 elements used as separate start vectors.


 Convergence threshold for CI optimization :     0.01000000


 The requested root number is now converged.


 *** CI converged in  4 iterations.



@ Final CI energies and residuals in symmetry 1 (irrep A  )
@    1      -76.075469224908204       4.82D-03

   --- OUTPUT FROM SIRCNO     Keyword = ONLYFD



 --- MACRO ITERATION  1 ---
 --------------------------

 2-el. integral transformation level 3: Total CPU and WALL times (sec)       0.006       0.005

 Total MCSCF energy       :           -76.075469224907351  (MACRO    1)

 - Nuclear repulsion      :             9.183706230245228
 - Inactive energy        :             0.000000000000000
 - Active energy          :           -85.259175455152572

 Norm of total gradient   :             0.110454648639
 -    of CI gradient      :             0.009637764850
 -    of orbital gradient :             0.110033371732


 *** Label "NATOCC  " not found on SIRIUS.RST in SIRPOP

 WARNING, occupation of active orbitals not available
          population analysis aborted.
          Use ".TRACI" option.


 Residual norm when dim(red L) =  14
 NEO root     CSF        orbital          total
    1     0.01688444     0.01139295     0.02036869 converged

 (NEONEX) NEO vector is converged.

   --- OUTPUT FROM SIRCNO     Keyword = FD+NO 


 Occupations of CAS natural orbitals:

 Symmetry  1 ( irrep A   in C1  )

   1.999981524   1.990488021   1.951449262   1.961760653   1.998062396
   0.001393552   0.046774707   0.002151076   0.036971531   0.010967278


 --- MACRO ITERATION  2 ---
 --------------------------

 2-el. integral transformation level 3: Total CPU and WALL times (sec)       0.006       0.006

 Total MCSCF energy       :           -76.097508590014286  (MACRO    2)

 - Nuclear repulsion      :             9.183706230245228
 - Inactive energy        :             0.000000000000000
 - Active energy          :           -85.281214820259521

 Norm of total gradient   :             0.264892195715
 -    of CI gradient      :             0.262569483203
 -    of orbital gradient :             0.035002026242
      Virial theorem: -V/T =      1.999025
@    MULPOP   O      -0.23; H       0.12; H       0.12; 

 Residual norm when dim(red L) =  12
 NEO root     CSF        orbital          total
    1     0.02771025     0.00738013     0.02867620 converged

 (NEONEX) NEO vector is converged.

   --- OUTPUT FROM SIRCNO     Keyword = FD+NO 


 Occupations of CAS natural orbitals:

 Symmetry  1 ( irrep A   in C1  )

   1.999970287   1.987462121   1.969375078   1.973414818   1.998712972
   0.005951901   0.025861834   0.005595742   0.022418933   0.011236315


 --- MACRO ITERATION  3 ---
 --------------------------

 2-el. integral transformation level 3: Total CPU and WALL times (sec)       0.006       0.006

 Total MCSCF energy       :           -76.115814014156854  (MACRO    3)

 - Nuclear repulsion      :             9.183706230245228
 - Inactive energy        :             0.000000000000000
 - Active energy          :           -85.299520244402075

 Norm of total gradient   :             0.148886176453
 -    of CI gradient      :             0.145253662688
 -    of orbital gradient :             0.032687413704
      Virial theorem: -V/T =      2.000298
@    MULPOP   O      -0.25; H       0.13; H       0.13; 

 Residual norm when dim(red L) =  13
 NEO root     CSF        orbital          total
    1     0.02185316     0.00646386     0.02278908 converged

 (NEONEX) NEO vector is converged.

   --- OUTPUT FROM SIRCNO     Keyword = FD+NO 


 Occupations of CAS natural orbitals:

 Symmetry  1 ( irrep A   in C1  )

   1.999964842   1.989148292   1.970297685   1.973305481   1.998950794
   0.005123124   0.025950560   0.005361797   0.022866170   0.009031253


 --- MACRO ITERATION  4 ---
 --------------------------

 2-el. integral transformation level 3: Total CPU and WALL times (sec)       0.006       0.006

 Total MCSCF energy       :           -76.124545828056057  (MACRO    4)

 - Nuclear repulsion      :             9.183706230245228
 - Inactive energy        :             0.000000000000000
 - Active energy          :           -85.308252058301292

 Norm of total gradient   :             0.103766557339
 -    of CI gradient      :             0.101680041851
 -    of orbital gradient :             0.020704287266
      Virial theorem: -V/T =      1.999826
@    MULPOP   O      -0.28; H       0.14; H       0.14; 

 Residual norm when dim(red L) =   9
 NEO root     CSF        orbital          total
    1     0.01589157     0.00894348     0.01823534 converged

 (NEONEX) NEO vector is converged.

   --- OUTPUT FROM SIRCNO     Keyword = FD+NO 


 Occupations of CAS natural orbitals:

 Symmetry  1 ( irrep A   in C1  )

   1.999965533   1.989407167   1.971858704   1.974117099   1.999095869
   0.004114585   0.025718522   0.003963298   0.022754862   0.009004360


 --- MACRO ITERATION  5 ---
 --------------------------

 2-el. integral transformation level 3: Total CPU and WALL times (sec)       0.006       0.006

 Total MCSCF energy       :           -76.125953278906962  (MACRO    5)

 - Nuclear repulsion      :             9.183706230245228
 - Inactive energy        :             0.000000000000000
 - Active energy          :           -85.309659509152198

 Norm of total gradient   :             0.021967686790
 -    of CI gradient      :             0.020004685033
 -    of orbital gradient :             0.009076995076
      Virial theorem: -V/T =      1.999974
@    MULPOP   O      -0.29; H       0.14; H       0.14; 

 Residual norm when dim(red L) =  16
 NEO root     CSF        orbital          total
    1     0.00064077     0.00008698     0.00064665 converged

 (NEONEX) NEO vector is converged.

   --- OUTPUT FROM SIRCNO     Keyword = FD+NO 


 Occupations of CAS natural orbitals:

 Symmetry  1 ( irrep A   in C1  )

   1.999966194   1.989481921   1.972294989   1.974202349   1.999110065
   0.003966516   0.025448236   0.003984175   0.022644694   0.008900861


 --- MACRO ITERATION  6 ---
 --------------------------

 2-el. integral transformation level 3: Total CPU and WALL times (sec)       0.006       0.006

 Total MCSCF energy       :           -76.126025810658575  (MACRO    6)

 - Nuclear repulsion      :             9.183706230245228
 - Inactive energy        :             0.000000000000000
 - Active energy          :           -85.309732040903810

 Norm of total gradient   :             0.002468533052
 -    of CI gradient      :             0.002451154769
 -    of orbital gradient :             0.000292396521
      Virial theorem: -V/T =      2.000026
@    MULPOP   O      -0.28; H       0.14; H       0.14; 

 Residual norm when dim(red L) =  20
 NEO root     CSF        orbital          total
    1     0.00003873     0.00002094     0.00004403 converged

 (NEONEX) NEO vector is converged.

   --- OUTPUT FROM SIRCNO     Keyword = FD+NO 


 Occupations of CAS natural orbitals:

 Symmetry  1 ( irrep A   in C1  )

   1.999966218   1.989484521   1.972327492   1.974220428   1.999108744
   0.003937525   0.025439155   0.003975735   0.022640086   0.008900096


 --- MACRO ITERATION  7 ---
 --------------------------

 2-el. integral transformation level 3: Total CPU and WALL times (sec)       0.006       0.006

 Total MCSCF energy       :           -76.126026264620293  (MACRO    7)

 - Nuclear repulsion      :             9.183706230245228
 - Inactive energy        :             0.000000000000000
 - Active energy          :           -85.309732494865528

 Norm of total gradient   :             0.000044090294
 -    of CI gradient      :             0.000038770152
 -    of orbital gradient :             0.000020995937
      Virial theorem: -V/T =      2.000025
@    MULPOP   O      -0.28; H       0.14; H       0.14; 

 Residual norm when dim(red L) =  10
 NEO root     CSF        orbital          total
    1     0.00000747     0.00000200     0.00000774 converged

 (NEONEX) NEO vector is converged.

   --- OUTPUT FROM SIRCNO     Keyword = FD+NO 


 Occupations of CAS natural orbitals:

 Symmetry  1 ( irrep A   in C1  )

   1.999966217   1.989484570   1.972327475   1.974220440   1.999108818
   0.003937525   0.025439165   0.003975829   0.022639922   0.008900038


 --- MACRO ITERATION  8 ---
 --------------------------

 2-el. integral transformation level 3: Total CPU and WALL times (sec)       0.006       0.006

 Total MCSCF energy       :           -76.126026264742677  (MACRO    8)

 - Nuclear repulsion      :             9.183706230245228
 - Inactive energy        :             0.000000000000000
 - Active energy          :           -85.309732494987912

 Norm of total gradient   :             0.000007736589
 -    of CI gradient      :             0.000007473303
 -    of orbital gradient :             0.000002001135
      Virial theorem: -V/T =      2.000025
@    MULPOP   O      -0.28; H       0.14; H       0.14; 

 (SIRSTP) Energy difference;
 actual, predicted and ratio:  -0.000000000122384  -0.000000000123864    0.988048
 Close to convergence, ratio set to one.

 *** Optimization control: MCSCF converged ***
     Number of macro iterations used            8
     Number of micro iterations used           81
     Total number of CPU seconds used         4.80
     Total WALL time used (seconds)           4.90

--------------------------------------------------------------------------------


     .---------------------------------------------------------------.
     | MCSCF EKT IPs [a.u. & eV], pole strengths, and Dyson orbitals |
     `---------------------------------------------------------------'


     MCSCF EKT symmetry 1 ( A  ) in point group C1  -- 5 principal poles

   ============  ============  ============  ============  ============
      20.546321      1.298845      0.699076      0.537359      0.496075
     559.093831     35.343373     19.022829     14.622296     13.498885
   ------------  ------------  ------------  ------------  ------------
       0.999979      0.954229      0.963654      0.952397      0.999554
   ============  ============  ============  ============  ============
       0.999927     -0.009686      0.000000      0.005792     -0.000000
       0.010993      0.905698     -0.000000     -0.355774      0.000000
      -0.000000      0.000000      0.981530     -0.000000      0.000000
       0.001822     -0.365549     -0.000000     -0.908572      0.000000
       0.000000      0.000000     -0.000000      0.000000      0.999777
      -0.000028     -0.002404      0.000000      0.000502     -0.000000
      -0.000000      0.000000     -0.015697      0.000000     -0.000000
      -0.000000     -0.000000     -0.002716     -0.000000     -0.000000
       0.000039      0.009087      0.000000      0.014269     -0.000000
       0.000111      0.011493      0.000000     -0.009030     -0.000000
   ============  ============  ============  ============  ============

   ============  ============  ============  ============  ============
       2.211774      2.624542      2.943953      2.883923      2.219037
      60.185429     71.417418     80.109042     78.475529     60.383068
   ------------  ------------  ------------  ------------  ------------
       0.039558      0.035809      0.017602      0.007171      0.030047
   ============  ============  ============  ============  ============
       0.000558      0.000649      0.000190      0.000000     -0.000000
      -0.038451     -0.176244     -0.123358     -0.000000     -0.000000
       0.000000     -0.000000     -0.000000     -0.071622     -0.132792
      -0.166537     -0.013486      0.007863      0.000000     -0.000000
      -0.000000      0.000000      0.000000     -0.000000     -0.000000
      -0.000694      0.015757     -0.041400      0.000000     -0.000000
       0.000000      0.000000     -0.000000     -0.008670     -0.111346
      -0.000000      0.000000     -0.000000     -0.044338      0.003835
      -0.099656      0.030572      0.012951      0.000000     -0.000000
       0.020326      0.058152      0.021014      0.000000      0.000000
   ============  ============  ============  ============  ============

@ Summary of MCSCF EKT ionization potentials [eV] and pole strengths:

@ Symmetry 1 (A  ) :   559.094      35.343      19.023      14.622      13.499
@                       60.185      71.417      80.109      78.476      60.383
@ Pole strengths   :     1.000       0.954       0.964       0.952       1.000
@                        0.040       0.036       0.018       0.007       0.030

  === End of MCSCF EKT output ===
--------------------------------------------------------------------------------


 CPU and wall time for MCSCF :       4.801       4.902


                     .----------------------------------------.
                     | --- SIRIUS OPTIMIZATION STATISTICS --- |
                     `----------------------------------------'


 
     Date and time (Linux)  : Sat Apr 13 12:03:48 2024
     Host name              : node103                                 


  ITER ITMIC     EMCSCF           GRDNRM        RATIO      STPLNG
 ---------------------------------------------------------------------
    1   13    -76.075469224907   0.1104546486  0.000000   0.7183489655
    2   10    -76.097508590014   0.2648921957  0.508034   0.7343851999
    3   11    -76.115814014157   0.1488861765  0.736973   0.7339854340
    4    7    -76.124545828056   0.1037665573  0.865789   0.2747981356
    5   14    -76.125953278907   0.0219676868  1.027205   0.0855633970
    6   18    -76.126025810659   0.0024685331  1.020012   0.0037469258
    7    8    -76.126026264620   0.0000440903  1.001544   0.0000542450
    8    0    -76.126026264743   0.0000077366  1.000000   0.0000000000


  ITER  INDGCM  GCIMAX      GCINRM     INDGOM  GOBMAX      GOBNRM      GRDNRM
 ------------------------------------------------------------------------------
    1   3912    0.001826    0.009638     36    0.046185    0.110033    0.110455
    2      9   -0.132392    0.262569    132    0.014112    0.035002    0.264892
    3   3894    0.049137    0.145254     26   -0.015538    0.032687    0.148886
    4   3685   -0.041195    0.101680     24    0.011363    0.020704    0.103767
    5      2    0.005119    0.020005     41    0.004037    0.009077    0.021968
    6      2    0.001382    0.002451     28    0.000195    0.000292    0.002469
    7    274   -0.000007    0.000039     10    0.000009    0.000021    0.000044
    8    274   -0.000001    0.000007     10    0.000001    0.000002    0.000008


  ITER ITMIC NCLIN NOLIN   TIMMAC    TIMITR    TIMMIC    TIMLIN    TIMMIC/ITMIC
 ------------------------------------------------------------------------------

    1    13    10     3      0.69      0.01      0.63      0.61      0.05
    2    10     9     2      0.61      0.01      0.55      0.53      0.05
    3    11     9     3      0.64      0.01      0.57      0.56      0.05
    4     7     6     2      0.45      0.01      0.38      0.37      0.05
    5    14    11     4      0.77      0.01      0.71      0.69      0.05
    6    18    15     4      1.00      0.01      0.94      0.91      0.05
    7     8     6     3      0.47      0.01      0.40      0.39      0.05
    8     0     0     0      0.06      0.01      0.00      0.00


 ITER         EMY                 EACTIV              EMCSCF

    1      0.000000000000    -85.259175455153    -76.075469224907
    2      0.000000000000    -85.281214820260    -76.097508590014
    3      0.000000000000    -85.299520244402    -76.115814014157
    4      0.000000000000    -85.308252058301    -76.124545828056
    5      0.000000000000    -85.309659509152    -76.125953278907
    6      0.000000000000    -85.309732040904    -76.126025810659
    7      0.000000000000    -85.309732494866    -76.126026264620
    8      0.000000000000    -85.309732494988    -76.126026264743


 ITER         DEPRED              DEACT               RATIO

    1      0.000000000000      0.000000000000      0.000000000000
    2     -0.043381674756     -0.022039365107      0.508033985102
    3     -0.024838670306     -0.018305424143      0.736972789489
    4     -0.010085383520     -0.008731813899      0.865788978846
    5     -0.001370175118     -0.001407450851      1.027205086871
    6     -0.000071108742     -0.000072531752      1.020011742673
    7     -0.000000453262     -0.000000453962      1.001544177120
    8     -0.000000000124     -0.000000000122      1.000000000000


 ITER    BETA           GAMMA             STPLNG              RTRUST

    1      1.37185195  1.00000000      0.718348965463      0.700000000000
    2      1.20466671  1.00000000      0.734385199923      0.700000000000
    3      0.71516410  1.00000000      0.733985433955      0.700000000000
    4      0.20000000  1.00000000      0.274798135580      0.700000000000
    5      0.20000000  1.00000000      0.085563397034      0.700000000000
    6      0.20000000  1.00000000      0.003746925786      0.700000000000
    7      0.20000000  1.00000000      0.000054244985      0.700000000000
    8      0.00000000  0.00000000      0.000000000000      0.700000000000


 Reduced L root no.  1
 ITER         EVAL              EVEC(1)           EVEC(2)           EVEC(3)
 ----------------------------------------------------------------------------
    1   -0.082838373061    0.712262992855   -0.680457440319   -0.075334767606
    2   -0.040440815160    0.748969049701   -0.049826559776   -0.622355700283
    3   -0.008087967305    0.885427042363   -0.015442001982   -0.430923465357
    4   -0.000109283911    0.998493132524   -0.002243743638   -0.051540802442
    5   -0.000005687034    0.999853610253   -0.000343010774   -0.016810302321
    6   -0.000000036261    0.999999719211   -0.000058617244   -0.000681384709
    7   -0.000000000010    0.999999999941   -0.000001319319   -0.000010349249
    8    0.000000000000    0.000000000000    0.000000000000    0.000000000000


                       .-----------------------------------.
                       | --- Final results from SIRIUS --- |
                       `-----------------------------------'


@    Spin multiplicity:           1
@    Spatial symmetry:            1 ( irrep  A   in C1  )
@    Total charge of molecule:    0

@    This was an MCSCF calculation.
@    State number:                1

@    Final MCSCF energy:          -76.126026264743                 
@    Nuclear repulsion:             9.183706230245
@    Electronic energy:           -85.309732494988

@    Final gradient norm:           0.000007736589

 
     Date and time (Linux)  : Sat Apr 13 12:03:48 2024
     Host name              : node103                                 

 Occupancies of natural orbitals
 -------------------------------

 Symmetry 1  ( A  ) -- Total occupation in this symmetry is  10.000000000

   1.999966217   1.989484570   1.972327475   1.974220440   1.999108818
   0.003937525   0.025439165   0.003975829   0.022639922   0.008900038

  Effective numbers of unpaired electrons this symmetry Eqs. 1) and 2):  0.26  0.01

  Total effective number of unpaired electrons :
  Eq. 1) sum(i) [(2 - n_i) n_i]    =  0.2568
  Eq. 2) sum(i) [(2 - n_i) n_i]**2 =  0.0110
 (Reference: M. Head-Gordon, Chemical Physics Letters 372 (2003) 508-511)

File label for MO orbitals:  13Apr24   (CNOORB)

 (Only coefficients > 0.0100 are printed.)

 Molecular orbitals for symmetry species 1  (A  )
 ------------------------------------------------

    Orbital         1        2        3        4        5        6        7
   1 O   :1s    -1.0005  -0.0030   0.0000   0.0001   0.0000  -0.2015   0.0000
   2 O   :1s     0.0073  -0.9213   0.0000   0.0201   0.0000  -0.9157   0.0000
   3 O   :1s     0.0016   0.0574  -0.0000  -0.2237  -0.0000   1.1459  -0.0000
   4 O   :2px    0.0000   0.0000  -0.0000  -0.0000   0.9199   0.0000   0.0000
   5 O   :2py    0.0000  -0.0000  -0.7230   0.0000  -0.0000   0.0000  -1.2915
   6 O   :2pz    0.0056  -0.1503   0.0000  -0.7890   0.0000  -0.0305   0.0000
   7 O   :2px   -0.0000  -0.0000   0.0000  -0.0000   0.0722  -0.0000  -0.0000
   8 O   :2py    0.0000   0.0000   0.1211  -0.0000   0.0000  -0.0000   0.5725
   9 O   :2pz   -0.0009  -0.0689   0.0000   0.0288   0.0000   0.0626   0.0000
  11 O   :3d1-  -0.0000   0.0000   0.0261   0.0000  -0.0000  -0.0000  -0.0442
  12 O   :3d0   -0.0001   0.0045  -0.0000   0.0175   0.0000   0.6273  -0.0000
  13 O   :3d1+  -0.0000  -0.0000   0.0000   0.0000  -0.0182   0.0000  -0.0000
  14 O   :3d2+   0.0001   0.0021  -0.0000  -0.0050   0.0000   0.4055   0.0000
  15 H   :1s     0.0018  -0.1928  -0.5627   0.4476   0.0000  -0.2900   0.9639
  16 H   :1s    -0.0014   0.1001   0.1881  -0.1800  -0.0000   0.1714  -0.3129
  17 H   :2px    0.0000  -0.0000  -0.0000   0.0000   0.0307  -0.0000  -0.0000
  18 H   :2py   -0.0008   0.0239   0.0201  -0.0397  -0.0000  -0.1238  -0.0227
  19 H   :2pz    0.0007  -0.0217  -0.0303  -0.0033   0.0000  -0.1900   0.0109
  20 H   :1s     0.0018  -0.1928   0.5627   0.4476   0.0000  -0.2900  -0.9639
  21 H   :1s    -0.0014   0.1001  -0.1881  -0.1800   0.0000   0.1714   0.3129
  22 H   :2px    0.0000  -0.0000   0.0000   0.0000   0.0307  -0.0000   0.0000
  23 H   :2py    0.0008  -0.0239   0.0201   0.0397   0.0000   0.1238  -0.0227
  24 H   :2pz    0.0007  -0.0217   0.0303  -0.0033   0.0000  -0.1900  -0.0109

    Orbital         8        9       10       11       12       13       14
   1 O   :1s    -0.0000   0.0860   0.4779  -0.2380  -0.0000  -0.0000  -0.0000
   2 O   :1s    -0.0000   0.7079   2.4348  -0.9268  -0.0000  -0.0000  -0.0000
   3 O   :1s     0.0000  -0.0714  -2.3161   1.9743  -0.0000   0.0000   0.0000
   4 O   :2px    0.0000  -0.0000   0.0000  -0.0000  -0.0000  -1.4100  -0.0000
   5 O   :2py   -0.4424  -0.0000   0.0000  -0.0000  -0.3827   0.0000   0.0000
   6 O   :2pz   -0.0000  -1.2481   0.6186   0.1004  -0.0000   0.0000   0.0000
   7 O   :2px   -0.0000   0.0000  -0.0000  -0.0000  -0.0000   1.6745   0.0000
   8 O   :2py    0.8374  -0.0000   0.0000   0.0000   1.3228   0.0000  -0.0000
   9 O   :2pz    0.0000   0.8141  -0.9747  -0.2836   0.0000  -0.0000  -0.0000
  10 O   :3d2-   0.0000  -0.0000  -0.0000   0.0000   0.0000   0.0000  -0.1320
  11 O   :3d1-   0.7583  -0.0000  -0.0000   0.0000  -0.0210  -0.0000   0.0000
  12 O   :3d0    0.0000   0.0139   0.1356   0.0623  -0.0000  -0.0000   0.0000
  14 O   :3d2+   0.0000  -0.0077   0.0002  -0.0265  -0.0000  -0.0000  -0.0000
  15 H   :1s    -0.3900  -0.8917  -0.4226   0.6880   0.3735  -0.0000  -0.0000
  16 H   :1s     0.3091   0.3514   0.2477  -1.3898  -1.9693   0.0000   0.0000
  17 H   :2px   -0.0000   0.0000   0.0000  -0.0000  -0.0000   0.0083  -0.6854
  18 H   :2py    0.0770   0.0399  -0.0052   0.1099   0.1742   0.0000   0.0000
  19 H   :2pz    0.0310   0.0143  -0.0975  -0.1605  -0.1407  -0.0000   0.0000
  20 H   :1s     0.3900  -0.8917  -0.4226   0.6880  -0.3735  -0.0000   0.0000
  21 H   :1s    -0.3091   0.3514   0.2477  -1.3898   1.9693   0.0000  -0.0000
  22 H   :2px    0.0000   0.0000   0.0000  -0.0000   0.0000   0.0083   0.6854
  23 H   :2py    0.0770  -0.0399   0.0052  -0.1099   0.1742  -0.0000   0.0000
  24 H   :2pz   -0.0310   0.0143  -0.0975  -0.1605   0.1407  -0.0000  -0.0000

    Orbital        15       16       17       18       19       20
   1 O   :1s    -0.5230  -0.0000   0.0000  -0.0000  -0.1632   0.0036
   2 O   :1s    -2.0408  -0.0000   0.0000  -0.0000  -0.8526  -0.0359
   3 O   :1s     3.6854   0.0000  -0.0000   0.0000  -0.5953  -0.6672
   4 O   :2px    0.0000  -0.0277  -0.0000  -0.0000  -0.0000  -0.0000
   5 O   :2py   -0.0000   0.0000   0.0269   1.0029   0.0000   0.0000
   6 O   :2pz    0.3563   0.0000  -0.0000  -0.0000   0.7206   0.2821
   7 O   :2px    0.0000  -0.6200   0.0000  -0.0000   0.0000   0.0000
   8 O   :2py    0.0000  -0.0000   0.8406  -1.3073  -0.0000   0.0000
   9 O   :2pz   -1.7254  -0.0000  -0.0000  -0.0000   0.1366  -0.3672
  11 O   :3d1-  -0.0000   0.0000   0.0453   0.2832   0.0000  -0.0000
  12 O   :3d0   -0.1535  -0.0000  -0.0000  -0.0000  -0.0979   0.7642
  13 O   :3d1+   0.0000  -0.1615   0.0000  -0.0000  -0.0000   0.0000
  14 O   :3d2+   0.0871   0.0000  -0.0000  -0.0000  -0.2386   0.2786
  15 H   :1s    -1.9282  -0.0000  -0.5775   0.7945   0.7330   0.4000
  16 H   :1s     0.7195   0.0000   0.1712  -0.6027  -0.1532  -0.1113
  17 H   :2px   -0.0000   0.7666  -0.0000  -0.0000  -0.0000   0.0000
  18 H   :2py    0.2844   0.0000  -0.4286   0.4988  -0.9181   0.1074
  19 H   :2pz    0.1354   0.0000  -0.7272  -0.3484   0.3327   0.7925
  20 H   :1s    -1.9282  -0.0000   0.5775  -0.7945   0.7330   0.4000
  21 H   :1s     0.7195   0.0000  -0.1712   0.6027  -0.1532  -0.1113
  22 H   :2px   -0.0000   0.7666   0.0000   0.0000  -0.0000   0.0000
  23 H   :2py   -0.2844  -0.0000  -0.4286   0.4988   0.9181  -0.1074
  24 H   :2pz    0.1354   0.0000   0.7272   0.3484   0.3327   0.7925

 Printout of CI-coefficients abs greater than 0.05000 for root  1
 *** NOTE: this root is the reference state ***

 Printout of coefficients in interval  3.1623E-01 to  1.0000E+00
 ===============================================================

  Coefficient of CSF no.         1 is      0.98384241    9.83842415E-01
  Orbital          1   2   3   4   5
  Spin coupling    2   2   2   2   2

 Printout of coefficients in interval  1.0000E-01 to  3.1623E-01
 ===============================================================
   ( no coefficients )

 Printout of coefficients in interval  5.0000E-02 to  1.0000E-01
 ===============================================================

  Coefficient of CSF no.         9 is     -0.07099762   -7.09976183E-02
  Orbital          1   2   4   5   7
  Spin coupling    2   2   2   2   2

  Coefficient of CSF no.        58 is     -0.06305388   -6.30538801E-02
  Orbital          1   2   3   5   9
  Spin coupling    2   2   2   2   2

  Coefficient of CSF no.      3696 is      0.07729646    7.72964622E-02
  Orbital          1   2   5   3   4   7   9
  Spin coupling    2   2   2   1  -1   1  -1

 Norm of printed CI vector ..      0.98293709

 Magnitude of CI coefficients
 ============================
 ( Ranges are relative to norm of vector :  1.00E+00 )

  10- 1 to 10- 0         1    0.96794590E+00      0.9679458973
  10- 2 to 10- 1        38    0.30841766E-01      0.9987876637
  10- 3 to 10- 2        88    0.11241967E-02      0.9999118604
  10- 4 to 10- 3       450    0.86644483E-04      0.9999985048
  10- 5 to 10- 4       951    0.14681826E-05      0.9999999730
  10- 6 to 10- 5      1354    0.26649879E-07      0.9999999997
  10- 7 to 10- 6      1422    0.31737982E-09      1.0000000000
  10- 8 to 10- 7       796    0.19691764E-11      1.0000000000
  10- 9 to 10- 8       253    0.86175817E-14      1.0000000000
  10-10 to 10- 9        21    0.76537993E-17      1.0000000000
  10-11 to 10-10         9    0.63536106E-20      1.0000000000
  Number of coefficients less than 10^-11 times norm is        14021

  Total CPU  time used in SIRIUS :   4.84 seconds
  Total wall time used in SIRIUS :   4.98 seconds

 
     Date and time (Linux)  : Sat Apr 13 12:03:48 2024
     Host name              : node103                                 

 NOTE:    1 warnings have been issued.
 Check output, result, and error files for "WARNING".


                     .---------------------------------------.
                     | End of Wave Function Section (SIRIUS) |
                     `---------------------------------------'

  Total CPU  time used in DALTON:   4.85 seconds
  Total wall time used in DALTON:   5.00 seconds

 
     Date and time (Linux)  : Sat Apr 13 12:03:48 2024
     Host name              : node103                                 
