[Molden Format]
[GTO]
    1 0
 s   9 1.00
   11720.0000000    0.0007100000
    1759.0000000    0.0054700000
     400.8000000    0.0278370000
     113.7000000    0.1048000000
      37.0300000    0.2830620000
      13.2700000    0.4487190000
       5.0250000    0.2709520000
       1.0130000    0.0154580000
       0.3023000   -0.0025850000
 s   9 1.00
   11720.0000000   -0.0001600000
    1759.0000000   -0.0012630000
     400.8000000   -0.0062670000
     113.7000000   -0.0257160000
      37.0300000   -0.0709240000
      13.2700000   -0.1654110000
       5.0250000   -0.1169550000
       1.0130000    0.5573680000
       0.3023000    0.5727590000
 s   9 1.00
   11720.0000000    0.0000000000
    1759.0000000    0.0000000000
     400.8000000    0.0000000000
     113.7000000    0.0000000000
      37.0300000    0.0000000000
      13.2700000    0.0000000000
       5.0250000    0.0000000000
       1.0130000    0.0000000000
       0.3023000    1.0000000000
 p   4 1.00
      17.7000000    0.0430180000
       3.8540000    0.2289130000
       1.0460000    0.5087280000
       0.2753000    0.4605310000
 p   4 1.00
      17.7000000    0.0000000000
       3.8540000    0.0000000000
       1.0460000    0.0000000000
       0.2753000    1.0000000000
 d   1 1.00
       1.1850000    1.0000000000

    2 0
 s   4 1.00
      13.0100000    0.0196850000
       1.9620000    0.1379770000
       0.4446000    0.4781480000
       0.1220000    0.5012400000
 s   4 1.00
      13.0100000    0.0000000000
       1.9620000    0.0000000000
       0.4446000    0.0000000000
       0.1220000    1.0000000000
 p   1 1.00
       0.7270000    1.0000000000

    3 0
 s   4 1.00
      13.0100000    0.0196850000
       1.9620000    0.1379770000
       0.4446000    0.4781480000
       0.1220000    0.5012400000
 s   4 1.00
      13.0100000    0.0000000000
       1.9620000    0.0000000000
       0.4446000    0.0000000000
       0.1220000    1.0000000000
 p   1 1.00
       0.7270000    1.0000000000

[SCFCONV]
scf-first  1  THROUGH   9
      -75.8501806543
      -76.0170028846
      -76.0259539163
      -76.0267038510
      -76.0267353089
      -76.0267413656
      -76.0267418916
      -76.0267418985
      -76.0267418987
[TITLE]
*** Dalton interface to Molden, wave function type : MC-SCF        13Apr24   12:
[Atoms] AU
O          1     8         0.0000000000         0.0000000000         0.124144424
H          2     1         0.0000000000         1.4315300000        -0.985265576
H          3     1         0.0000000000        -1.4315300000        -0.985265576
[5D7F]
[9G]
[MO]
Sym= A
Ene=    0.0000
Spin= Alpha
Occup=  2.0000
    1       -1.000516
    2        0.007313
    3        0.001605
    6        0.005608
    9       -0.000861
   10       -0.000088
   13        0.000145
   15        0.001797
   16       -0.001446
   18       -0.000767
   19        0.000733
   20        0.001797
   21       -0.001446
   23        0.000767
   24        0.000733
Sym= A
Ene=    0.0000
Spin= Alpha
Occup=  1.9895
    1       -0.003022
    2       -0.921340
    3        0.057437
    6       -0.150288
    9       -0.068866
   10        0.004451
   13        0.002112
   15       -0.192808
   16        0.100074
   18        0.023940
   19       -0.021732
   20       -0.192808
   21        0.100074
   23       -0.023940
   24       -0.021732
Sym= A
Ene=    0.0000
Spin= Alpha
Occup=  1.9723
    5       -0.722994
    8        0.121130
   12        0.026136
   15       -0.562674
   16        0.188093
   18        0.020080
   19       -0.030302
   20        0.562674
   21       -0.188093
   23        0.020080
   24        0.030302
Sym= A
Ene=    0.0000
Spin= Alpha
Occup=  1.9742
    1        0.000072
    2        0.020085
    3       -0.223692
    6       -0.788955
    9        0.028839
   10        0.017496
   13       -0.005048
   15        0.447615
   16       -0.179968
   18       -0.039715
   19       -0.003346
   20        0.447615
   21       -0.179968
   23        0.039715
   24       -0.003346
Sym= A
Ene=    0.0000
Spin= Alpha
Occup=  1.9991
    4        0.919881
    7        0.072222
   11       -0.018200
   17        0.030697
   22        0.030697
Sym= A
Ene=    0.0000
Spin= Alpha
Occup=  0.0039
    1       -0.201455
    2       -0.915731
    3        1.145901
    6       -0.030487
    9        0.062607
   10        0.627265
   13        0.405523
   15       -0.290025
   16        0.171411
   18       -0.123795
   19       -0.189989
   20       -0.290025
   21        0.171411
   23        0.123795
   24       -0.189989
Sym= A
Ene=    0.0000
Spin= Alpha
Occup=  0.0254
    5       -1.291528
    8        0.572536
   12       -0.044189
   15        0.963863
   16       -0.312869
   18       -0.022729
   19        0.010942
   20       -0.963863
   21        0.312869
   23       -0.022729
   24       -0.010942
Sym= A
Ene=    0.0000
Spin= Alpha
Occup=  0.0040
    5       -0.442351
    8        0.837390
   12        0.758291
   15       -0.389975
   16        0.309064
   18        0.077047
   19        0.030997
   20        0.389975
   21       -0.309064
   23        0.077047
   24       -0.030997
Sym= A
Ene=    0.0000
Spin= Alpha
Occup=  0.0226
    1        0.086049
    2        0.707858
    3       -0.071389
    6       -1.248126
    9        0.814112
   10        0.013933
   13       -0.007686
   15       -0.891734
   16        0.351357
   18        0.039916
   19        0.014251
   20       -0.891734
   21        0.351357
   23       -0.039916
   24        0.014251
Sym= A
Ene=    0.0000
Spin= Alpha
Occup=  0.0089
    1        0.477933
    2        2.434773
    3       -2.316096
    6        0.618636
    9       -0.974657
   10        0.135559
   13        0.000168
   15       -0.422634
   16        0.247693
   18       -0.005214
   19       -0.097451
   20       -0.422634
   21        0.247693
   23        0.005214
   24       -0.097451
Sym= A
Ene=    0.0000
Spin= Alpha
Occup=  0.0000
    1       -0.237996
    2       -0.926787
    3        1.974281
    6        0.100400
    9       -0.283639
   10        0.062277
   13       -0.026508
   15        0.687961
   16       -1.389773
   18        0.109938
   19       -0.160493
   20        0.687961
   21       -1.389773
   23       -0.109938
   24       -0.160493
Sym= A
Ene=    0.0000
Spin= Alpha
Occup=  0.0000
    5       -0.382715
    8        1.322763
   12       -0.020966
   15        0.373503
   16       -1.969305
   18        0.174178
   19       -0.140655
   20       -0.373503
   21        1.969305
   23        0.174178
   24        0.140655
Sym= A
Ene=    0.0000
Spin= Alpha
Occup=  0.0000
    4       -1.410039
    7        1.674469
   11        0.003552
   17        0.008334
   22        0.008334
Sym= A
Ene=    0.0000
Spin= Alpha
Occup=  0.0000
   14       -0.131966
   17       -0.685377
   22        0.685377
Sym= A
Ene=    0.0000
Spin= Alpha
Occup=  0.0000
    1       -0.523025
    2       -2.040788
    3        3.685421
    6        0.356327
    9       -1.725444
   10       -0.153515
   13        0.087146
   15       -1.928235
   16        0.719533
   18        0.284450
   19        0.135406
   20       -1.928235
   21        0.719533
   23       -0.284450
   24        0.135406
Sym= A
Ene=    0.0000
Spin= Alpha
Occup=  0.0000
    4       -0.027707
    7       -0.619962
   11       -0.161512
   17        0.766572
   22        0.766572
Sym= A
Ene=    0.0000
Spin= Alpha
Occup=  0.0000
    5        0.026945
    8        0.840569
   12        0.045269
   15       -0.577526
   16        0.171187
   18       -0.428591
   19       -0.727173
   20        0.577526
   21       -0.171187
   23       -0.428591
   24        0.727173
Sym= A
Ene=    0.0000
Spin= Alpha
Occup=  0.0000
    5        1.002862
    8       -1.307311
   12        0.283198
   15        0.794470
   16       -0.602657
   18        0.498824
   19       -0.348398
   20       -0.794470
   21        0.602657
   23        0.498824
   24        0.348398
Sym= A
Ene=    0.0000
Spin= Alpha
Occup=  0.0000
    1       -0.163203
    2       -0.852611
    3       -0.595305
    6        0.720608
    9        0.136589
   10       -0.097889
   13       -0.238606
   15        0.733042
   16       -0.153167
   18       -0.918139
   19        0.332652
   20        0.733042
   21       -0.153167
   23        0.918139
   24        0.332652
Sym= A
Ene=    0.0000
Spin= Alpha
Occup=  0.0000
    1        0.003650
    2       -0.035875
    3       -0.667220
    6        0.282141
    9       -0.367152
   10        0.764167
   13        0.278584
   15        0.399958
   16       -0.111254
   18        0.107441
   19        0.792498
   20        0.399958
   21       -0.111254
   23       -0.107441
   24        0.792498
Sym= A
Ene=    0.0000
Spin= Alpha
Occup=  0.0000
    4        0.017381
    7       -0.319347
   11        1.042466
   17        0.398220
   22        0.398220
Sym= A
Ene=    0.0000
Spin= Alpha
Occup=  0.0000
   14        1.065721
   17       -0.371094
   22        0.371094
Sym= A
Ene=    0.0000
Spin= Alpha
Occup=  0.0000
    5       -0.626212
    8       -1.371180
   12        1.063613
   15        2.211282
   16       -0.708844
   18       -0.860604
   19        0.647535
   20       -2.211282
   21        0.708844
   23       -0.860604
   24       -0.647535
Sym= A
Ene=    0.0000
Spin= Alpha
Occup=  0.0000
    1       -0.208089
    2       -0.665703
    3        2.781827
    6       -0.444230
    9       -0.844654
   10        0.436469
   13       -1.066741
   15       -2.091569
   16        0.848825
   18        0.663734
   19       -0.407260
   20       -2.091569
   21        0.848825
   23       -0.663734
   24       -0.407260
[End of Molden output from Dalton]
