

     ************************************************************************
     *************** Dalton - An Electronic Structure Program ***************
     ************************************************************************

    This is output from DALTON release Dalton2022.0-dev (2022)
         ( Web site: http://daltonprogram.org )

   ----------------------------------------------------------------------------

    NOTE:
     
    Dalton is an experimental code for the evaluation of molecular
    properties using (MC)SCF, DFT, CI, and CC wave functions.
    The authors accept no responsibility for the performance of
    the code or for the correctness of the results.
     
    The code (in whole or part) is provided under a licence and
    is not to be reproduced for further distribution without
    the written permission of the authors or their representatives.
     
    See the home page "http://daltonprogram.org" for further information.
     
    If results obtained with this code are published,
    the appropriate citations would be both of:
     
       K. Aidas, C. Angeli, K. L. Bak, V. Bakken,
       R. Bast, L. Boman, O. Christiansen, R. Cimiraglia,
       S. Coriani, P. Dahle, E. K. Dalskov, U. Ekstroem,
       T. Enevoldsen, J. J. Eriksen, P. Ettenhuber, B. Fernandez,
       L. Ferrighi, H. Fliegl, L. Frediani, K. Hald, A. Halkier,
       C. Haettig, H. Heiberg, T. Helgaker, A. C. Hennum,
       H. Hettema, E. Hjertenaes, S. Hoest, I.-M. Hoeyvik,
       M. F. Iozzi, B. Jansik, H. J. Aa. Jensen, D. Jonsson,
       P. Joergensen, J. Kauczor, S. Kirpekar,
       T. Kjaergaard, W. Klopper, S. Knecht, R. Kobayashi, H. Koch,
       J. Kongsted, A. Krapp, K. Kristensen, A. Ligabue,
       O. B. Lutnaes, J. I. Melo, K. V. Mikkelsen, R. H. Myhre,
       C. Neiss, C. B. Nielsen, P. Norman, J. Olsen,
       J. M. H. Olsen, A. Osted, M. J. Packer, F. Pawlowski,
       T. B. Pedersen, P. F. Provasi, S. Reine, Z. Rinkevicius,
       T. A. Ruden, K. Ruud, V. Rybkin, P. Salek, C. C. M. Samson,
       A. Sanchez de Meras, T. Saue, S. P. A. Sauer,
       B. Schimmelpfennig, K. Sneskov, A. H. Steindal,
       K. O. Sylvester-Hvid, P. R. Taylor, A. M. Teale,
       E. I. Tellgren, D. P. Tew, A. J. Thorvaldsen, L. Thoegersen,
       O. Vahtras, M. A. Watson, D. J. D. Wilson, M. Ziolkowski
       and H. Agren,
       "The Dalton quantum chemistry program system",
       WIREs Comput. Mol. Sci. 2014, 4:269-284 (doi: 10.1002/wcms.1172)
     
    and
     
       Dalton, a molecular electronic structure program,
       Release Dalton2022.0-dev (2022), see http://daltonprogram.org
   ----------------------------------------------------------------------------

    Authors in alphabetical order (Major contribution(s) in parenthesis):

  Kestutis Aidas,              Vilnius University,        Lithuania   (QM/MM)
  Celestino Angeli,            University of Ferrara,     Italy       (NEVPT2)
  Juan J. Aucar,               Northeast National UniversiArgentina   (LRESC, Relativistic Effects on EFG)
  Keld L. Bak,                 UNI-C,                     Denmark     (AOSOPPA, non-adiabatic coupling, magnetic properties)
  Vebjoern Bakken,             University of Oslo,        Norway      (DALTON; geometry optimizer, symmetry detection)
  Radovan Bast,                UiT The Arctic U. of NorwayNorway      (DALTON installation and execution frameworks)
  Pablo Baudin,                University of Valencia,    Spain       (Cholesky excitation energies)
  Linus Boman,                 NTNU,                      Norway      (Cholesky decomposition and subsystems)
  Bruno N. Cabral Tenorio,     Technical Univ. of Denmark,Denmark     (Lanczos-based CC methods)
  Ove Christiansen,            Aarhus University,         Denmark     (CC module)
  Renzo Cimiraglia,            University of Ferrara,     Italy       (NEVPT2)
  Sonia Coriani,               Technical Univ. of Denmark,Denmark     (CC and RESPONS modules)
  Janusz Cukras,               University of Warsaw,      Poland      (MChD in RESPONS)
  Paal Dahle,                  University of Oslo,        Norway      (Parallelization)
  Erik K. Dalskov,             UNI-C,                     Denmark     (SOPPA)
  Thomas Enevoldsen,           Univ. of Southern Denmark, Denmark     (SOPPA)
  Janus J. Eriksen,            Aarhus University,         Denmark     (Polarizable embedding, TDA)
  Rasmus Faber,                Technical Univ. of Denmark,Denmark     (Vib.avg. NMR w. SOPPA, parallel AO-SOPPA, CVS-CC and EOMCC)
  Tobias Fahleson,             KTH Stockholm,             Sweden      (Damped cubic response)
  Berta Fernandez,             U. of Santiago de CompostelSpain       (Doublet spin, ESR in RESPONS)
  Lara Ferrighi,               Aarhus University,         Denmark     (PCM Cubic response)
  Heike Fliegl,                University of Oslo,        Norway      (CCSD(R12))
  Luca Frediani,               UiT The Arctic U. of NorwayNorway      (PCM)
  Emmanuel Fromager,           Univ. Strasbourg,          France      (MC-srDFT)
  Bin Gao,                     UiT The Arctic U. of NorwayNorway      (Gen1Int library)
  Andre S. P. Gomes,           CNRS/Universite de Lille,  France      (Frozen density embedding)
  Christof Haettig,            Ruhr-University Bochum,    Germany     (CC module)
  Kasper Hald,                 Aarhus University,         Denmark     (CC module)
  Asger Halkier,               Aarhus University,         Denmark     (CC module)
  Frederik Beyer Hansen,       University of Copenhagen,  Denmark     (Parallel AO-SOPPA)
  Erik D. Hedegaard,           Univ. of Southern Denmark, Denmark     (Polarizable embedding, QM/MM, and MC-srDFT)
  Hanne Heiberg,               University of Oslo,        Norway      (Geometry analysis, selected one-electron integrals)
  Trygve Helgaker,             University of Oslo,        Norway      (DALTON; ABACUS, ERI, DFT modules, London, and much more)
  Alf Christian Hennum,        University of Oslo,        Norway      (Parity violation)
  Hinne Hettema,               University of Auckland,    New Zealand (Quadratic response in RESPONS; SIRIUS supersymmetry)
  Andreas E. Hillers-Bendtsen, University of Copenhagen,  Denmark     (MP3)
  Eirik Hjertenaes,            NTNU,                      Norway      (Cholesky decomposition)
  Nicolai Machholdt Hoeyer,    Aarhus University,         Denmark     (MP3)
  Pi A. B. Haase,              University of Copenhagen,  Denmark     (Triplet AO-SOPPA)
  Maria Francesca Iozzi,       University of Oslo,        Norway      (RPA)
  Christoph Jacob,             TU Braunschweig            Germany     (Frozen density embedding)
  Brano Jansik,                Technical Univ. of Ostrava Czech Rep.  (DFT cubic response)
  Hans Joergen Aa. Jensen,     Univ. of Southern Denmark, Denmark     (DALTON; SIRIUS, RESPONS, ABACUS, MC-srDFT, and much more)
  Dan Jonsson,                 UiT The Arctic U. of NorwayNorway      (Cubic response in RESPONS module)
  Poul Joergensen,             Aarhus University,         Denmark     (RESPONS, ABACUS, and CC modules)
  Maciej Kaminski,             University of Warsaw,      Poland      (CPPh in RESPONS)
  Joanna Kauczor,              Linkoeping University,     Sweden      (Complex polarization propagator (CPP) module)
  Sheela Kirpekar,             Univ. of Southern Denmark, Denmark     (Mass-velocity & Darwin integrals)
  Frederik Oersted Kjeldal,    Technical Univ. of Denmark,Denmark     (MP3)
  Erik Kjellgren,              Univ. of Southern Denmark, Denmark     (MC-srDFT)
  Wim Klopper,                 KIT Karlsruhe,             Germany     (R12 code in CC, SIRIUS, and ABACUS modules)
  Stefan Knecht,               ETH Zurich,                Switzerland (Parallel CI and MCSCF, MC-srDFT)
  Rika Kobayashi,              Australian National Univ., Australia   (DIIS in CC, London in MCSCF)
  Henrik Koch,                 NTNU,                      Norway      (CC module, Cholesky decomposition)
  Jacob Kongsted,              Univ. of Southern Denmark, Denmark     (Polarizable embedding, polarizable density embedding, QM/MM)
  Andrea Ligabue,              University of Modena,      Italy       (CTOCD, AOSOPPA)
  Nanna H. List,               Univ. of Southern Denmark, Denmark     (Polarizable embedding)
  Ola B. Lutnaes,              University of Oslo,        Norway      (DFT Hessian)
  Juan I. Melo,                University of Buenos Aires,Argentina   (LRESC, Relativistic Effects on NMR Shieldings)
  Kurt V. Mikkelsen,           University of Copenhagen,  Denmark     (MC-SCRF, QM/MM, and MP3)
  Rolf H. Myhre,               NTNU,                      Norway      (Subsystems and CC3)
  Christian Neiss,             Univ. Erlangen-Nuernberg,  Germany     (CCSD(R12))
  Christian B. Nielsen,        University of Copenhagen,  Denmark     (QM/MM)
  Patrick Norman,              KTH Stockholm,             Sweden      (Cubic response and complex frequency response in RESPONS)
  Jeppe Olsen,                 Aarhus University,         Denmark     (SIRIUS CI/density modules)
  Jogvan Magnus H. Olsen,      Aarhus University,         Denmark     (Polarizable embedding and polarizable density embedding)
  Anders Osted,                Copenhagen University,     Denmark     (QM/MM)
  Martin J. Packer,            University of Sheffield,   UK          (SOPPA)
  Filip Pawlowski,             Kazimierz Wielki UniversityPoland      (CC3)
  Morten N. Pedersen,          Univ. of Southern Denmark, Denmark     (Polarizable embedding)
  Thomas B. Pedersen,          University of Oslo,        Norway      (Cholesky decomposition)
  Patricio F. Provasi,         University of Northeastern,Argentina   (Analysis of coupling constants in localized orbitals)
  Peter Reinholdt,             Univ. of Southern Denmark, Denmark     (Polarizable embedding and polarizable density embedding)
  Zilvinas Rinkevicius,        KTH Stockholm,             Sweden      (open-shell DFT, ESR)
  Elias Rudberg,               KTH Stockholm,             Sweden      (DFT grid and basis info)
  Torgeir A. Ruden,            University of Oslo,        Norway      (Numerical derivatives in ABACUS)
  Kenneth Ruud,                UiT The Arctic U. of NorwayNorway      (DALTON; ABACUS magnetic properties and much more)
  Pawel Salek,                 KTH Stockholm,             Sweden      (DALTON; DFT code)
  Claire C. M. Samson,         University of Karlsruhe    Germany     (Boys localization, r12 integrals in ERI)
  Alfredo Sanchez de Meras,    University of Valencia,    Spain       (CC module, Cholesky decomposition)
  Trond Saue,                  Paul Sabatier University,  France      (direct Fock matrix construction)
  Stephan P. A. Sauer,         University of Copenhagen,  Denmark     (SOPPA(CCSD), SOPPA prop., AOSOPPA, vibrational g-factors)
  Bernd Schimmelpfennig,       Forschungszentrum KarlsruheGermany     (AMFI module)
  Anna K. Schnack-Petersen,    University of Copenhagen,  Denmark     (RPA(D) and HRPA(D) properties in AOSOPPA)
  Kristian Sneskov,            Aarhus University,         Denmark     (Polarizable embedding, QM/MM)
  Arnfinn H. Steindal,         UiT The Arctic U. of NorwayNorway      (parallel QM/MM, polarizable embedding)
  Casper Steinmann,            Aalborg University,        Denmark     (QFIT, polarizable embedding)
  K. O. Sylvester-Hvid,        University of Copenhagen,  Denmark     (MC-SCRF)
  Peter R. Taylor,             VLSCI/Univ. of Melbourne,  Australia   (Symmetry handling ABACUS, integral transformation)
  Andrew M. Teale,             University of Nottingham,  England     (DFT-AC, DFT-D)
  David P. Tew,                University of Bristol,     England     (CCSD(R12))
  Julien Toulouse,             Sorbonne Univ.,            France      (MC-srDFT)
  Olav Vahtras,                KTH Stockholm,             Sweden      (Triplet response, spin-orbit, ESR, TDDFT, open-shell DFT)
  Lucas Visscher,              Vrije Universiteit AmsterdaNetherlands (Frozen density embedding)
  David J. Wilson,             La Trobe University,       Australia   (DFT Hessian and DFT magnetizabilities)
  Luna Zamok,                  University of Copenhagen,  Denmark     (Block Lanczos RPA solver in SOPPA module)
  Hans Agren,                  KTH Stockholm,             Sweden      (SIRIUS module, RESPONS, MC-SCRF solvation)
 --------------------------------------------------------------------------------

     Date and time (Linux)  : Tue Mar 26 11:16:27 2024
     Host name              : node103                                 

 * Work memory size             :    64000000 =  488.28 megabytes.

 * Directories for basis set searches:
   1) /home1/s4925076/Sample_inputs_dalton2024_updated/ex3/ketone_opt
   2) /home3/hb-qchav/Dalton/basis


Compilation information
-----------------------

 Who compiled             | p256146
 Host                     | login1
 System                   | Linux-4.18.0-425.13.1.el8_7.x86_64
 CMake generator          | Unix Makefiles
 Processor                | x86_64
 64-bit integers          | OFF
 MPI                      | ON
 Fortran compiler         | /cvmfs/hpc.rug.nl/versions/2023.01/rocky8/x86_64/a
                          | md/zen3/software/impi/2021.7.1-intel-compilers-202
                          | 2.2.1/mpi/2021.7.1/bin/mpiifort
 Fortran compiler version | unknown
 C compiler               | /cvmfs/hpc.rug.nl/versions/2023.01/rocky8/x86_64/a
                          | md/zen3/software/impi/2021.7.1-intel-compilers-202
                          | 2.2.1/mpi/2021.7.1/bin/mpiicc
 C compiler version       | unknown
 C++ compiler             | /cvmfs/hpc.rug.nl/versions/2023.01/rocky8/x86_64/a
                          | md/zen3/software/impi/2021.7.1-intel-compilers-202
                          | 2.2.1/mpi/2021.7.1/bin/mpiicpc
 C++ compiler version     | unknown
 BLAS                     | /cvmfs/hpc.rug.nl/versions/2023.01/rocky8/x86_64/a
                          | md/zen3/software/imkl/2022.2.1/mkl/2022.2.1/lib/in
                          | tel64/libmkl_intel_lp64.so;/cvmfs/hpc.rug.nl/versi
                          | ons/2023.01/rocky8/x86_64/amd/zen3/software/imkl/2
                          | 022.2.1/mkl/2022.2.1/lib/intel64/libmkl_sequential
                          | .so;/cvmfs/hpc.rug.nl/versions/2023.01/rocky8/x86_
                          | 64/amd/zen3/software/imkl/2022.2.1/mkl/2022.2.1/li
                          | b/intel64/libmkl_core.so;/usr/lib64/libpthread.so;
                          | /usr/lib64/libm.so
 LAPACK                   | /cvmfs/hpc.rug.nl/versions/2023.01/rocky8/x86_64/a
                          | md/zen3/software/imkl/2022.2.1/mkl/2022.2.1/lib/in
                          | tel64/libmkl_lapack95_lp64.a;/cvmfs/hpc.rug.nl/ver
                          | sions/2023.01/rocky8/x86_64/amd/zen3/software/imkl
                          | /2022.2.1/mkl/2022.2.1/lib/intel64/libmkl_intel_lp
                          | 64.so
 Static linking           | OFF
 Last Git revision        | 4d6ac05be54d7f9c5fe49e0ac32a42491a6c6955
 Git branch               | master
 Configuration time       | 2023-04-05 13:35:07.780405

 * Sequential calculation.


   Content of the .dal input file
 ----------------------------------

**DALTON INPUT
.RUN WAVEFUNCTION
.OPTIMIZE
**WAVE FUNCTION
.HF
**END OF DALTON INPUT


   Content of the .mol file
 ----------------------------

BASIS
6-31G
opt

Atomtypes=3 Nosymmetry Angstrom
Charge=6.0 Atoms=4
C         -7.17773        0.66444       -0.00401
C         -5.72120        0.95489       -0.00133
C         -5.17853        2.18190        0.00667
C         -5.91849        3.48105       -0.00113
Charge=1.0 Atoms=6
H         -6.60982        3.54262       -0.84677
H         -5.20763        4.30786       -0.10363
H         -6.46203        3.62730        0.93699
H         -7.41956       -0.41148       -0.02444
H         -5.08297        0.07754        0.00109
H         -4.09321        2.26033        0.01805
Charge=8.0 Atoms=1
O         -8.05680        1.51420        0.01849



       *******************************************************************
       *********** Output from DALTON general input processing ***********
       *******************************************************************

 --------------------------------------------------------------------------------
   Overall default print level:    0
   Print level for DALTON.STAT:    1

    HERMIT 1- and 2-electron integral sections will be executed
    "Old" integral transformation used (limited to max 255 basis functions)
    Wave function sections will be executed (SIRIUS module)
 --------------------------------------------------------------------------------


 Chosen parameters for *OPTIMI :
 -------------------------------

 Default 1st order method will be used:   BFGS update.
 Optimization will be performed in redundant internal coordinates (by default).
 Model Hessian will be used as initial Hessian.
 The model Hessian parameters of Roland Lindh will be used.
 
 
 Trust region method will be used to control step (default).
 
 Convergence threshold for gradient set to :      1.00D-04
 Convergence threshold for energy set to   :      1.00D-06
 Convergence threshold for step set to     :      1.00D-04
 Number of convergence criteria set to     :   2


              >>>>>>>>>>>>>>>>>>>>>>>>>>>>>>>>>>>>>>>>>>>>>>>>>>>>>
              >>>>>>>>>> 1st Order Geometry Optimization >>>>>>>>>>
              >>>>>>>>>>>>>>>>>>>>>>>>>>>>>>>>>>>>>>>>>>>>>>>>>>>>>


 Reading .mol file to determine number of atoms for parallel runs.


   ****************************************************************************
   *************** Output of molecule and basis set information ***************
   ****************************************************************************


    The two title cards from your ".mol" input:
    --------------------------------------------------------------------------------
 1: opt
 2: 
    --------------------------------------------------------------------------------

  Coordinates are entered in Angstrom and converted to atomic units.
          - Conversion factor : 1 bohr = 0.52917721 A

  Atomic type no.    1
  --------------------
  Nuclear charge:   6.00000
  Number of symmetry independent centers:    4
  Number of basis sets to read;    2
  Basis set file used for this atomic type with Z =   6 :
     "/home3/hb-qchav/Dalton/basis/6-31G"

  Info about the basis set file: your basis has no documentation.
  Basis set: 6-31G                                                                           

  Atomic type no.    2
  --------------------
  Nuclear charge:   1.00000
  Number of symmetry independent centers:    6
  Number of basis sets to read;    2
  Basis set file used for this atomic type with Z =   1 :
     "/home3/hb-qchav/Dalton/basis/6-31G"

  Info about the basis set file: your basis has no documentation.
  Basis set: 6-31G                                                                           

  Atomic type no.    3
  --------------------
  Nuclear charge:   8.00000
  Number of symmetry independent centers:    1
  Number of basis sets to read;    2
  Basis set file used for this atomic type with Z =   8 :
     "/home3/hb-qchav/Dalton/basis/6-31G"

  Info about the basis set file: your basis has no documentation.
  Basis set: 6-31G                                                                           


                         SYMGRP: Point group information
                         -------------------------------

@    Point group: C1 


                                 Isotopic Masses
                                 ---------------

                           C          12.000000
                           C          12.000000
                           C          12.000000
                           C          12.000000
                           H           1.007825
                           H           1.007825
                           H           1.007825
                           H           1.007825
                           H           1.007825
                           H           1.007825
                           O          15.994915

                       Total mass:    70.041865 amu
                       Natural abundance:  95.357 %

 Center-of-mass coordinates (a.u.):  -12.194057    3.375621    0.007535
 Center-of-mass coordinates (Angs):   -6.452817    1.786302    0.003987


  Atoms and basis sets
  --------------------

  Number of atom types :    3
  Total number of atoms:   11

  Basis set used is "6-31G" from the basis set library.

  label    atoms   charge   prim   cont     basis
  ----------------------------------------------------------------------
  C           4    6.0000    22     9      [10s4p|3s2p]                                       
  H           6    1.0000     4     2      [4s|2s]                                            
  O           1    8.0000    22     9      [10s4p|3s2p]                                       
  ----------------------------------------------------------------------
  total:     11   38.0000   134    57
  ----------------------------------------------------------------------

  Threshold for neglecting AO integrals:  1.00D-12


  Cartesian Coordinates (a.u.)
  ----------------------------

  Total number of coordinates:   33
  C       :     1  x -13.5639438992    2  y   1.2556096265    3  z  -0.0075778018
  C       :     4  x -10.8115011063    5  y   1.8044805795    6  z  -0.0025133357
  C       :     7  x  -9.7860034301    8  y   4.1231934321    9  z   0.0126044733
  C       :    10  x -11.1843251735   11  y   6.5782311274   12  z  -0.0021353905
  H       :    13  x -12.4907495355   14  y   6.6945815649   15  z  -1.6001633909
  H       :    16  x  -9.8409944603   17  y   8.1406755848   18  z  -0.1958323183
  H       :    19  x -12.2114669115   20  y   6.8546035732   21  z   1.7706544819
  H       :    22  x -14.0209363680   23  y  -0.7775845059   24  z  -0.0461849065
  H       :    25  x  -9.6054212016   26  y   0.1465293637   27  z   0.0020598015
  H       :    28  x  -7.7350458721   29  y   4.2714046521   30  z   0.0341095566
  O       :    31  x -15.2251454438   32  y   2.8614232985   33  z   0.0349410361


   Interatomic separations (in Angstrom):
   --------------------------------------

            C           C           C           C           H           H     
            ------      ------      ------      ------      ------      ------
 C     :    0.000000
 C     :    1.485210    0.000000
 C     :    2.509900    1.341681    0.000000
 C     :    3.085285    2.533852    1.495123    0.000000
 H     :    3.052325    2.863697    2.151397    1.094000    0.000000
 H     :    4.143154    3.393616    2.129018    1.095191    1.761813    0.000000
 H     :    3.190023    2.927635    2.145239    1.094026    1.791874    1.766231
 H     :    1.102952    2.179892    3.427653    4.171995    4.119079    5.212588
 H     :    2.175430    1.084936    2.106536    3.504565    3.880324    4.233452
 H     :    3.472984    2.086840    1.088210    2.195945    2.953897    2.334334
 O     :    1.222850    2.401718    2.954725    2.905384    2.637596    3.992145

            H           H           H           H           O     
            ------      ------      ------      ------      ------
 H     :    0.000000
 H     :    4.260629    0.000000
 H     :    3.921545    2.387351    0.000000
 H     :    2.885198    4.266729    2.396765    0.000000
 O     :    2.802164    2.028832    3.302720    4.033207    0.000000


  Max    interatomic separation is    5.2126 Angstrom (    9.8504 Bohr)
  between atoms    8 and    6, "H     " and "H     ".

  Min HX interatomic separation is    1.0849 Angstrom (    2.0502 Bohr)

  Min YX interatomic separation is    1.2229 Angstrom (    2.3109 Bohr)


  Bond distances (Angstrom):
  --------------------------

                  atom 1     atom 2       distance
                  ------     ------       --------
  bond distance:  C          C            1.485210
  bond distance:  C          C            1.341681
  bond distance:  C          C            1.495123
  bond distance:  H          C            1.094000
  bond distance:  H          C            1.095191
  bond distance:  H          C            1.094026
  bond distance:  H          C            1.102952
  bond distance:  H          C            1.084936
  bond distance:  H          C            1.088210
  bond distance:  O          C            1.222850


  Bond angles (degrees):
  ----------------------

                  atom 1     atom 2     atom 3         angle
                  ------     ------     ------         -----
  bond angle:     C          C          H            113.943
  bond angle:     C          C          O            124.685
  bond angle:     H          C          O            121.372
  bond angle:     C          C          C            125.136
  bond angle:     C          C          H            114.757
  bond angle:     C          C          H            120.106
  bond angle:     C          C          C            126.473
  bond angle:     C          C          H            117.993
  bond angle:     C          C          H            115.533
  bond angle:     C          C          H            111.450
  bond angle:     C          C          H            109.587
  bond angle:     C          C          H            110.951
  bond angle:     H          C          H            107.178
  bond angle:     H          C          H            109.959
  bond angle:     H          C          H            107.566




 Principal moments of inertia (u*A**2) and principal axes
 --------------------------------------------------------

   IA      55.747931          0.735358    0.677677   -0.001711
   IB     116.219309         -0.677667    0.735357    0.004239
   IC     168.721142          0.004130   -0.001957    0.999990


 Rotational constants
 --------------------

               A                   B                   C

           9065.4307           4348.4943           2995.3508 MHz
            0.302390            0.145050            0.099914 cm-1


@  Nuclear repulsion energy :  159.835299692760 Hartree


                     .---------------------------------------.
                     | Starting in Integral Section (HERMIT) |
                     `---------------------------------------'



 ***************************************************************************************
 ****************** Output from **INTEGRALS input processing (HERMIT) ******************
 ***************************************************************************************


 - Using defaults, no **INTEGRALS input found

 Default print level:        1

 Calculation of one- and two-electron Hamiltonian integrals.

 Center of mass  (bohr):    -12.194057204240      3.375621405171      0.007535219140
 Operator center (bohr):      0.000000000000      0.000000000000      0.000000000000
 Gauge origin    (bohr):      0.000000000000      0.000000000000      0.000000000000
 Dipole origin   (bohr):      0.000000000000      0.000000000000      0.000000000000

Calculation of 2-electron integrals are postponed until they are needed.


     ************************************************************************
     ************************** Output from HERINT **************************
     ************************************************************************



                      Nuclear contribution to dipole moments
                      --------------------------------------

                 au               Debye          C m (/(10**-30)

      x   -459.78041955     -1168.64518376     -3898.18073328
      y    130.79068521       332.43674122      1108.88960797
      z      0.24643918         0.62638589         2.08939841


  Total CPU  time used in HERMIT:   0.03 seconds
  Total wall time used in HERMIT:   0.03 seconds


                        .----------------------------------.
                        | End of Integral Section (HERMIT) |
                        `----------------------------------'



                   .--------------------------------------------.
                   | Starting in Wave Function Section (SIRIUS) |
                   `--------------------------------------------'


 *** Output from Huckel module :

     Using EWMO model:          T
     Using EHT  model:          F
     Number of Huckel orbitals each symmetry:   31

 EWMO - Energy Weighted Maximum Overlap - is a Huckel type method,
        which normally is better than Extended Huckel Theory.
 Reference: Linderberg and Ohrn, Propagators in Quantum Chemistry (Wiley, 1973)

 Huckel EWMO eigenvalues for symmetry :  1
          -20.684656     -11.358417     -11.352520     -11.350296     -11.345408
           -1.806361      -1.552305      -1.345123      -1.033608      -0.910778
           -0.812578      -0.777014      -0.666995      -0.640212      -0.576784
           -0.547332      -0.495386      -0.461300      -0.417848      -0.313872
           -0.216607      -0.161987      -0.138779      -0.132595      -0.125727
           -0.121944      -0.116470      -0.115449      -0.108017      -0.094411
           -0.083921

 **********************************************************************
 *SIRIUS* a direct, restricted step, second order MCSCF program       *
 **********************************************************************

 
     Date and time (Linux)  : Tue Mar 26 11:16:28 2024
     Host name              : node103                                 

 Title lines from ".mol" input file:
     opt
     

 Print level on unit LUPRI =   2 is   0
 Print level on unit LUW4  =   2 is   5

@    Restricted, closed shell Hartree-Fock calculation.

@    Time-dependent Hartree-Fock calculation (random phase approximation).

 Initial molecular orbitals are obtained according to
 ".MOSTART EWMO  " input option

     Wave function specification
     ============================
@    Wave function type        --- HF ---
@    Number of closed shell electrons          38
@    Number of electrons in active shells       0
@    Total charge of the molecule               0

@    Spin multiplicity and 2 M_S                1         0
@    Total number of symmetries                 1 (point group: C1 )
@    Reference state symmetry                   1 (irrep name : A  )

     Orbital specifications
     ======================
@    Abelian symmetry species          All |    1
@                                          |  A  
                                       --- |  ---
@    Occupied SCF orbitals              19 |   19
@    Secondary orbitals                 38 |   38
@    Total number of orbitals           57 |   57
@    Number of basis functions          57 |   57

     Optimization information
     ========================
@    Number of configurations                 1
@    Number of orbital rotations            722
     ------------------------------------------
@    Total number of variables              723

     Maximum number of Fock   iterations      0
     Maximum number of DIIS   iterations     60
     Maximum number of QC-SCF iterations     60
     Threshold for SCF convergence     1.00D-05


 ***********************************************
 ***** DIIS acceleration of SCF iterations *****
 ***********************************************

 C1-DIIS algorithm; max error vectors =    8

 Iter      Total energy        Error norm    Delta(E)  DIIS dim.
 -----------------------------------------------------------------------------

Calculating AOSUPINT

---> (Re)generating AOTWOINT


     ************************************************************************
     ************************** Output from HERINT **************************
     ************************************************************************


 Threshold for neglecting two-electron integrals:  1.00D-12
 HERMIT - Number of two-electron integrals written:     1307600 ( 95.7% )
 HERMIT - Megabytes written:                             14.977

  Total CPU  time used in TWOINT:   0.17 seconds
  Total wall time used in TWOINT:   0.17 seconds
  Time used in TWOINT     is       0.17 seconds
  CPU  time used in MAKE_AOTWOINT is   0.17 seconds
  WALL time used in MAKE_AOTWOINT is   0.17 seconds
     (Precalculated AO two-electron integrals are transformed to P-supermatrix elements.
      Threshold for discarding integrals :  1.00D-12 )

@  1    -228.823132427        3.41767D+00   -2.29D+02    1
      Virial theorem: -V/T =      2.008574
@    MULPOP   C       0.84; C       0.21; C       0.50; C       0.39; H      -0.10; H      -0.15; H      -0.10; H      -0.22; H      -0.18; H      -0.20; 
@             O      -1.00; 
   1  Level shift: doubly occupied orbital energies shifted by -2.00D-01
 -----------------------------------------------------------------------------
@  2    -229.554423910        1.59794D+00   -7.31D-01    2
      Virial theorem: -V/T =      2.002710
@    MULPOP   C      -0.07; C      -0.29; C      -0.17; C      -0.46; H       0.21; H       0.16; H       0.21; H       0.10; H       0.17; H       0.19; 
@             O      -0.04; 
   2  Level shift: doubly occupied orbital energies shifted by -1.00D-01
 -----------------------------------------------------------------------------
@  3    -229.686539783        3.56360D-01   -1.32D-01    3
      Virial theorem: -V/T =      1.998346
@    MULPOP   C       0.33; C      -0.24; C      -0.10; C      -0.51; H       0.21; H       0.16; H       0.21; H       0.14; H       0.17; H       0.18; 
@             O      -0.55; 
   3  Level shift: doubly occupied orbital energies shifted by -2.50D-02
 -----------------------------------------------------------------------------
@  4    -229.695346289        1.04491D-01   -8.81D-03    4
      Virial theorem: -V/T =      2.000835
@    MULPOP   C       0.30; C      -0.29; C      -0.07; C      -0.48; H       0.20; H       0.15; H       0.20; H       0.15; H       0.18; H       0.18; 
@             O      -0.52; 
   4  Level shift: doubly occupied orbital energies shifted by -1.25D-02
 -----------------------------------------------------------------------------
@  5    -229.696487052        2.73021D-02   -1.14D-03    5
      Virial theorem: -V/T =      1.999997
@    MULPOP   C       0.32; C      -0.28; C      -0.11; C      -0.49; H       0.21; H       0.15; H       0.20; H       0.16; H       0.19; H       0.19; 
@             O      -0.54; 
 -----------------------------------------------------------------------------
@  6    -229.696602392        9.63630D-03   -1.15D-04    6
      Virial theorem: -V/T =      1.999958
@    MULPOP   C       0.31; C      -0.29; C      -0.10; C      -0.49; H       0.21; H       0.15; H       0.20; H       0.16; H       0.19; H       0.19; 
@             O      -0.54; 
 -----------------------------------------------------------------------------
@  7    -229.696621534        3.34690D-03   -1.91D-05    7
      Virial theorem: -V/T =      1.999967
@    MULPOP   C       0.31; C      -0.29; C      -0.11; C      -0.48; H       0.21; H       0.15; H       0.20; H       0.16; H       0.19; H       0.19; 
@             O      -0.54; 
 -----------------------------------------------------------------------------
@  8    -229.696623290        8.90111D-04   -1.76D-06    8
      Virial theorem: -V/T =      1.999966
@    MULPOP   C       0.31; C      -0.29; C      -0.11; C      -0.48; H       0.21; H       0.15; H       0.20; H       0.16; H       0.19; H       0.19; 
@             O      -0.54; 
 -----------------------------------------------------------------------------
@  9    -229.696623439        3.54001D-04   -1.49D-07    8
      Virial theorem: -V/T =      1.999966
@    MULPOP   C       0.31; C      -0.29; C      -0.11; C      -0.48; H       0.21; H       0.15; H       0.20; H       0.16; H       0.19; H       0.19; 
@             O      -0.54; 
 -----------------------------------------------------------------------------
@ 10    -229.696623460        1.14075D-04   -2.15D-08    8
      Virial theorem: -V/T =      1.999965
@    MULPOP   C       0.31; C      -0.29; C      -0.11; C      -0.48; H       0.21; H       0.15; H       0.20; H       0.16; H       0.19; H       0.19; 
@             O      -0.54; 
 -----------------------------------------------------------------------------
@ 11    -229.696623463        2.74964D-05   -2.97D-09    8
      Virial theorem: -V/T =      1.999965
@    MULPOP   C       0.31; C      -0.29; C      -0.11; C      -0.48; H       0.21; H       0.15; H       0.20; H       0.16; H       0.19; H       0.19; 
@             O      -0.54; 
 -----------------------------------------------------------------------------
@ 12    -229.696623464        1.41850D-05   -1.67D-10    8
      Virial theorem: -V/T =      1.999965
@    MULPOP   C       0.31; C      -0.29; C      -0.11; C      -0.48; H       0.21; H       0.15; H       0.20; H       0.16; H       0.19; H       0.19; 
@             O      -0.54; 
 -----------------------------------------------------------------------------
@ 13    -229.696623464        4.93627D-06   -3.04D-11    8

@ *** DIIS converged in  13 iterations !
@     Converged SCF energy, gradient:   -229.696623463531    4.94D-06
    - total time used in SIRFCK :              0.00 seconds


 *** SCF orbital energy analysis ***

 Only the 20 lowest virtual orbital energies printed in each symmetry.

 Number of electrons        :   38
 Closed shell orbitals      :   19

 Sym       Hartree-Fock orbital energies

1 A     -20.56560635   -11.34377943   -11.27573093   -11.24419104   -11.22816734
         -1.40085934    -1.09652298    -0.97499736    -0.86300789    -0.74215360
         -0.68709178    -0.62447350    -0.61196165    -0.58231768    -0.52797943
         -0.52497407    -0.52419965    -0.41492022    -0.37224045     0.08683849
          0.22926316     0.23898609     0.26904252     0.28205968     0.31894885
          0.34091997     0.35171355     0.39991898     0.42911263     0.54072420
          0.56356979     0.74285748     0.74718372     0.76886222     0.81097905
          0.82892284     0.84859891     0.86866374     0.93402293

    E(LUMO) :     0.08683849 au (symmetry 1)
  - E(HOMO) :    -0.37224045 au (symmetry 1)
  ------------------------------------------
    gap     :     0.45907895 au

 --- Writing SIRIFC interface file

--------------------------------------------------------------------------------


     .--------------------------------------------------.
     | HF-SCF KT IPs [a.u. & eV] from Koopmans' theorem |
     `--------------------------------------------------'


     HF-SCF KT symmetry 1 ( A  ) in point group C1  -- 19 principal poles with pole strength 1

   ============  ============  ============  ============  ============
      20.565606     11.343779     11.275731     11.244191     11.228167
     559.618616    308.679940    306.828247    305.970002    305.533976
   ============  ============  ============  ============  ============

   ============  ============  ============  ============  ============
       1.400859      1.096523      0.974997      0.863008      0.742154
      38.119322     29.837908     26.531028     23.483639     20.195027
   ============  ============  ============  ============  ============

   ============  ============  ============  ============  ============
       0.687092      0.624474      0.611962      0.582318      0.527979
      18.696718     16.992788     16.652324     15.845670     14.367051
   ============  ============  ============  ============  ============

   ============  ============  ============  ============
       0.524974      0.524200      0.414920      0.372240
      14.285271     14.264198     11.290553     10.129178
   ============  ============  ============  ============

@ Summary of HF-SCF KT ionization potentials [eV]:

@ Symmetry 1 (A  ) :   559.619     308.680     306.828     305.970     305.534
@                       38.119      29.838      26.531      23.484      20.195
@                       18.697      16.993      16.652      15.846      14.367
@                       14.285      14.264      11.291      10.129

  === End of HF-SCF KT output ===
--------------------------------------------------------------------------------


 CPU and wall time for SCF :       0.271       0.594


                       .-----------------------------------.
                       | --- Final results from SIRIUS --- |
                       `-----------------------------------'


@    Spin multiplicity:           1
@    Spatial symmetry:            1 ( irrep  A   in C1  )
@    Total charge of molecule:    0

@    Final HF energy:            -229.696623463531                 
@    Nuclear repulsion:           159.835299692760
@    Electronic energy:          -389.531923156291

@    Final gradient norm:           0.000004936271

 
     Date and time (Linux)  : Tue Mar 26 11:16:28 2024
     Host name              : node103                                 

File label for MO orbitals:  26Mar24   FOCKDIIS

 (Only coefficients > 0.0100 are printed.)

 Molecular orbitals for symmetry species 1  (A  )
 ------------------------------------------------

    Orbital        10       11       12       13       14       15       16
   1 C   :1s    -0.0630  -0.0447   0.0093  -0.0123  -0.0005   0.0004   0.0163
   2 C   :1s     0.1432   0.1153  -0.0169   0.0601   0.0011  -0.0035  -0.0278
   3 C   :1s     0.1261   0.0856  -0.0264  -0.0467  -0.0004  -0.0057  -0.0700
   4 C   :2px   -0.1849   0.0281  -0.2197  -0.2228  -0.0021   0.0637  -0.0823
   5 C   :2py   -0.1888   0.2012  -0.1532   0.2534   0.0025  -0.0405   0.0459
   6 C   :2pz   -0.0029   0.0026  -0.0056   0.0086  -0.1018   0.0665   0.2275
   7 C   :2px   -0.0438   0.0513  -0.1040  -0.0148  -0.0000  -0.0195  -0.0311
   8 C   :2py   -0.1211   0.0465  -0.0817   0.0424  -0.0002  -0.0231   0.0118
   9 C   :2pz   -0.0020   0.0002  -0.0029   0.0022  -0.0584   0.0433   0.1462
  10 C   :1s     0.0717   0.0387  -0.0108  -0.0158   0.0002  -0.0248  -0.0110
  11 C   :1s    -0.1479  -0.0730   0.0229   0.0315  -0.0014   0.0510   0.0205
  12 C   :1s    -0.1255  -0.1087   0.0022   0.0388   0.0052   0.1103   0.0572
  13 C   :2px    0.0336  -0.1986   0.1652   0.1512   0.0018  -0.0635   0.0592
  14 C   :2py    0.0162   0.2270   0.2260  -0.0316   0.0020   0.2168  -0.1302
  15 C   :2pz   -0.0003   0.0000  -0.0006   0.0030  -0.1035   0.0243   0.0788
  16 C   :2px   -0.0022  -0.0578   0.0424   0.0742  -0.0004  -0.0644   0.0504
  17 C   :2py    0.0563   0.1222   0.0588   0.0021   0.0070   0.1188  -0.0880
  18 C   :2pz    0.0002  -0.0000  -0.0011   0.0016  -0.0645   0.0129   0.0400
  19 C   :1s    -0.0736  -0.0357  -0.0048   0.0287   0.0003   0.0047  -0.0040
  20 C   :1s     0.1524   0.0744   0.0123  -0.0613   0.0004   0.0008   0.0079
  21 C   :1s     0.1426   0.0629  -0.0008  -0.1026  -0.0086  -0.0824   0.0334
  22 C   :2px    0.1713  -0.1419  -0.2338   0.1080   0.0060  -0.0824  -0.1700
  23 C   :2py    0.1041   0.0389  -0.2303  -0.1318  -0.0037  -0.1735   0.1890
  24 C   :2pz    0.0018  -0.0009  -0.0036   0.0024  -0.1434   0.0036   0.0113
  25 C   :2px    0.0886  -0.0521  -0.1120   0.0394   0.0070  -0.0008  -0.1178
  26 C   :2py    0.0483   0.0400  -0.0955  -0.0490   0.0015  -0.0592   0.0925
  27 C   :2pz    0.0008   0.0003  -0.0010   0.0017  -0.0733   0.0055   0.0198
  28 C   :1s     0.0288   0.0221  -0.0129  -0.0121   0.0002   0.0059  -0.0101
  29 C   :1s    -0.0546  -0.0376   0.0248   0.0180  -0.0007  -0.0168   0.0252
  30 C   :1s    -0.0730  -0.0774   0.0477   0.0635   0.0018   0.0002   0.0019
  31 C   :2px    0.1166   0.0080  -0.1859  -0.0215   0.0008   0.2582   0.1330
  32 C   :2py   -0.0571  -0.1436  -0.0290   0.1910   0.0043   0.2576  -0.1869
  33 C   :2pz    0.0023   0.0005  -0.0006   0.0027  -0.3968  -0.0309  -0.1160
  34 C   :2px    0.0344  -0.0042  -0.0694   0.0076  -0.0015   0.1424   0.0645
  35 C   :2py   -0.0203  -0.0414  -0.0015   0.0883   0.0000   0.1184  -0.0698
  36 C   :2pz    0.0010  -0.0019  -0.0029  -0.0014  -0.2134  -0.0188  -0.0823
  37 H   :1s    -0.0682  -0.0253   0.0796   0.0226   0.1948  -0.0984   0.0025
  38 H   :1s    -0.0398  -0.0197   0.0464   0.0012   0.1360  -0.0790  -0.0245
  39 H   :1s    -0.0070  -0.0784  -0.0780   0.0944   0.0267   0.2555  -0.0210
  40 H   :1s     0.0026  -0.0525  -0.0692   0.0596   0.0206   0.2232  -0.0264
  41 H   :1s    -0.0596  -0.0312   0.0648   0.0340  -0.2187  -0.0936  -0.1197
  42 H   :1s    -0.0348  -0.0202   0.0388   0.0143  -0.1551  -0.0685  -0.0875
  43 H   :1s     0.1719  -0.0540   0.1014  -0.0991   0.0006   0.0080  -0.0485
  44 H   :1s     0.0729  -0.0428   0.0585  -0.0793   0.0003  -0.0033  -0.0391
  45 H   :1s    -0.0653  -0.2090  -0.0387   0.0904  -0.0010  -0.1227   0.1195
  46 H   :1s    -0.0121  -0.1222  -0.0316   0.0626   0.0015  -0.0961   0.0831
  47 H   :1s     0.1654  -0.0392  -0.1521   0.0272   0.0028  -0.0745  -0.1091
  48 H   :1s     0.0784  -0.0292  -0.1007   0.0280   0.0017  -0.0709  -0.0779
  49 O   :1s     0.0378   0.0531   0.0097   0.0577   0.0008  -0.0127   0.0040
  50 O   :1s    -0.0884  -0.1204  -0.0209  -0.1289  -0.0019   0.0284  -0.0074
  51 O   :1s    -0.1171  -0.2028  -0.0454  -0.2372  -0.0020   0.0496  -0.0252
  52 O   :2px   -0.0292   0.2589  -0.1391   0.3077   0.0031  -0.1395  -0.0099
  53 O   :2py   -0.2078  -0.0445  -0.1892  -0.2886   0.0023   0.0015  -0.1457
  54 O   :2pz   -0.0038  -0.0031  -0.0075  -0.0052  -0.1203   0.0936   0.3016
  55 O   :2px   -0.0112   0.1366  -0.0825   0.1706   0.0023  -0.0890  -0.0123
  56 O   :2py   -0.1044  -0.0171  -0.1054  -0.1637   0.0015  -0.0015  -0.0965
  57 O   :2pz   -0.0019  -0.0017  -0.0046  -0.0027  -0.0829   0.0667   0.2151

    Orbital        17       18       19       20       21       22       23
   1 C   :1s    -0.0169  -0.0041  -0.0002  -0.0004  -0.0411   0.0024   0.0299
   2 C   :1s     0.0294   0.0283   0.0003   0.0008   0.0632  -0.0038   0.0060
   3 C   :1s     0.0728  -0.0725   0.0024   0.0030   0.5474  -0.0257  -0.7771
   4 C   :2px    0.0644   0.1546   0.0013   0.0027   0.0148  -0.0022   0.0798
   5 C   :2py   -0.0495   0.1376   0.0008  -0.0057  -0.1069  -0.0040   0.1181
   6 C   :2pz    0.2168   0.0040   0.0214   0.2873   0.0076   0.3502  -0.0023
   7 C   :2px    0.0380  -0.0542   0.0033   0.0009   0.0486   0.0001   0.2434
   8 C   :2py   -0.0161   0.0348  -0.0005  -0.0058  -0.3119  -0.0008   0.1753
   9 C   :2pz    0.1405   0.0022   0.0403   0.3835   0.0083   0.6536  -0.0016
  10 C   :1s     0.0197  -0.0285  -0.0001   0.0002  -0.0314  -0.0006   0.0226
  11 C   :1s    -0.0394   0.0499   0.0004   0.0003   0.0355   0.0038   0.0168
  12 C   :1s    -0.0872   0.2167  -0.0026  -0.0057   0.5336  -0.0132  -0.6487
  13 C   :2px   -0.0398  -0.2421   0.0010  -0.0010   0.1305  -0.0031  -0.0713
  14 C   :2py    0.0717  -0.0384   0.0012  -0.0004  -0.1154   0.0068   0.0711
  15 C   :2pz    0.0798  -0.0001  -0.3733   0.1641  -0.0074  -0.2988   0.0050
  16 C   :2px   -0.0329  -0.2246   0.0028  -0.0021   0.3166  -0.0029  -0.3840
  17 C   :2py    0.0638  -0.0343   0.0015  -0.0066  -0.3577   0.0001   0.2025
  18 C   :2pz    0.0408  -0.0015  -0.3322   0.3163  -0.0201  -0.6672   0.0092
  19 C   :1s     0.0022   0.0092   0.0002  -0.0005  -0.0507   0.0017  -0.0001
  20 C   :1s    -0.0059  -0.0189  -0.0010   0.0000   0.0647  -0.0006   0.0605
  21 C   :1s    -0.0162  -0.0061   0.0010   0.0122   0.8087  -0.0230  -0.0935
  22 C   :2px    0.1966   0.1018   0.0054   0.0037   0.1852  -0.0100   0.0081
  23 C   :2py   -0.1455   0.0370  -0.0002  -0.0007  -0.0011  -0.0000  -0.0200
  24 C   :2pz    0.0193   0.0011  -0.3191  -0.3261   0.0086   0.1922  -0.0050
  25 C   :2px    0.1267   0.1123   0.0032   0.0061   0.5741  -0.0504   0.2472
  26 C   :2py   -0.0737  -0.0164  -0.0005  -0.0026  -0.0096  -0.0004  -0.4019
  27 C   :2pz    0.0246   0.0023  -0.2597  -0.5413   0.0267   0.3842  -0.0180
  28 C   :1s     0.0078  -0.0010   0.0000   0.0007  -0.0461   0.0014  -0.1237
  29 C   :1s    -0.0201   0.0013  -0.0004   0.0007   0.0310   0.0001   0.0595
  30 C   :1s     0.0053   0.0447   0.0005  -0.0147   0.7700  -0.0292   2.4887
  31 C   :2px   -0.2219  -0.1116  -0.0026   0.0009   0.0826   0.0017  -0.0608
  32 C   :2py    0.1106   0.0085   0.0013  -0.0002   0.0679   0.0022   0.1212
  33 C   :2pz   -0.1077  -0.0032   0.1089   0.0222  -0.0025   0.0862   0.0077
  34 C   :2px   -0.1211  -0.0472  -0.0018   0.0016   0.1735   0.0360  -0.2593
  35 C   :2py    0.0308   0.0134   0.0013  -0.0026   0.2455   0.0273   0.3075
  36 C   :2pz   -0.0765  -0.0076   0.0890   0.0051  -0.0081   0.4969   0.0436
  37 H   :1s     0.1494   0.0525  -0.0771  -0.0638   0.0173   0.0617  -0.0208
  38 H   :1s     0.1069   0.0322  -0.0811  -0.1364  -0.0474   0.6135  -1.0962
  39 H   :1s    -0.0449  -0.0563  -0.0106  -0.0076  -0.0369   0.0058   0.0172
  40 H   :1s    -0.0299  -0.0722  -0.0116  -0.0143  -0.8090   0.0362  -0.9556
  41 H   :1s     0.0181   0.0411   0.0883   0.0718   0.0105  -0.0661  -0.0167
  42 H   :1s     0.0365   0.0273   0.0925   0.1700  -0.1322  -0.6296  -1.1667
  43 H   :1s     0.0515  -0.1841  -0.0010   0.0007  -0.0194   0.0001   0.0123
  44 H   :1s     0.0441  -0.2324  -0.0013   0.0005  -0.7045   0.0262   0.7128
  45 H   :1s    -0.0881  -0.0602  -0.0010  -0.0019  -0.0395  -0.0007  -0.0091
  46 H   :1s    -0.0556  -0.0672  -0.0013  -0.0060  -1.0127   0.0166   0.6453
  47 H   :1s     0.1339   0.0813   0.0014  -0.0006  -0.0481   0.0017   0.0407
  48 H   :1s     0.0990   0.0634   0.0012  -0.0057  -1.2424   0.0598  -0.0698
  49 O   :1s    -0.0001   0.0008  -0.0004  -0.0001  -0.0101   0.0008  -0.0184
  50 O   :1s    -0.0016   0.0031   0.0009   0.0004   0.0250  -0.0019   0.0344
  51 O   :1s     0.0112  -0.0288   0.0021  -0.0019   0.0945  -0.0059   0.2546
  52 O   :2px    0.0566  -0.3693   0.0038  -0.0013   0.0477  -0.0009  -0.0003
  53 O   :2py    0.1390  -0.3759  -0.0035   0.0080   0.0452  -0.0001  -0.0055
  54 O   :2pz    0.2960  -0.0045   0.2277  -0.2933  -0.0042  -0.2192  -0.0026
  55 O   :2px    0.0434  -0.2947   0.0027  -0.0023   0.0834  -0.0042   0.0317
  56 O   :2py    0.0926  -0.2915  -0.0034   0.0103   0.0571   0.0007  -0.1261
  57 O   :2pz    0.2108  -0.0035   0.1912  -0.3715  -0.0083  -0.3568  -0.0067

    Orbital        24       25       26       27       28       29
   1 C   :1s    -0.0703   0.0743  -0.0023   0.0015   0.0452   0.0095
   2 C   :1s     0.0669  -0.0885   0.0280   0.0012  -0.0158   0.0604
   3 C   :1s     1.3919  -1.0787  -0.3264  -0.0283  -0.8833  -0.6827
   4 C   :2px   -0.0390  -0.0323   0.0120   0.0095  -0.1390   0.1730
   5 C   :2py   -0.2177   0.1008  -0.0327  -0.0044  -0.1463  -0.0102
   6 C   :2pz   -0.0075  -0.0023   0.0036   0.0735  -0.0058  -0.0001
   7 C   :2px    0.0589  -0.1614   0.1326   0.0798   0.3771   1.7955
   8 C   :2py   -0.8034   0.7385  -0.3769  -0.0093  -0.9194  -0.6149
   9 C   :2pz   -0.0207   0.0018   0.0253   0.2820  -0.0350  -0.0406
  10 C   :1s     0.0015  -0.0915   0.0411  -0.0007  -0.0210   0.0496
  11 C   :1s    -0.0035   0.1101  -0.0622   0.0033   0.0758   0.0325
  12 C   :1s     0.1023   1.6345  -0.3897  -0.0904   0.0071  -2.1670
  13 C   :2px    0.0761   0.0556  -0.0373   0.0035  -0.0837   0.0586
  14 C   :2py   -0.0335  -0.1729  -0.0277  -0.0100  -0.0143   0.0021
  15 C   :2pz    0.0020   0.0031  -0.0229  -0.1718   0.0077   0.0152
  16 C   :2px    0.5435   0.4794  -0.5014   0.0511  -0.0903   0.2245
  17 C   :2py    0.2308  -1.1267   0.1585  -0.0737  -0.4720  -0.2985
  18 C   :2pz    0.0211   0.0141  -0.0402  -0.4271   0.0192   0.0237
  19 C   :1s     0.0511   0.0275  -0.0940   0.0092  -0.0608   0.0110
  20 C   :1s    -0.0060  -0.0488   0.1289  -0.0188   0.0712  -0.0021
  21 C   :1s    -1.3347   0.0097   1.7088  -0.1421   1.4354  -0.2156
  22 C   :2px   -0.1174   0.0054   0.0862  -0.0151  -0.2520   0.0105
  23 C   :2py   -0.0627   0.0105   0.0382  -0.0167   0.0913  -0.2216
  24 C   :2pz   -0.0044  -0.0026   0.0166   0.1240  -0.0072  -0.0052
  25 C   :2px   -0.4098  -0.3481   0.7281  -0.0950  -1.4703  -0.0489
  26 C   :2py   -0.0310   0.2764   0.3779  -0.1458   0.8563  -1.4100
  27 C   :2pz   -0.0335  -0.0266   0.0466   0.6227  -0.0250  -0.0360
  28 C   :1s    -0.0576  -0.0091   0.0473  -0.0096   0.0533  -0.0161
  29 C   :1s     0.0506   0.0403  -0.0263   0.0053   0.0012   0.0088
  30 C   :1s     0.8840  -0.1749  -0.7987   0.1853  -1.3886   0.4250
  31 C   :2px   -0.1021  -0.1150  -0.2413   0.0052  -0.0172   0.0254
  32 C   :2py   -0.0942  -0.0880  -0.0684  -0.0060   0.1523  -0.1690
  33 C   :2pz    0.0160   0.0128  -0.0117  -0.3379  -0.0033   0.0308
  34 C   :2px   -0.4475  -0.5271  -1.3388   0.0652  -0.2944   0.7778
  35 C   :2py   -0.3736  -0.1861  -0.1976  -0.0671   1.5666  -0.8477
  36 C   :2pz    0.0873   0.0591  -0.0674  -1.5095  -0.0042   0.1014
  37 H   :1s    -0.0229   0.0020  -0.0373  -0.0195  -0.0220   0.0562
  38 H   :1s    -0.6822  -0.3899  -0.7467  -1.4912   0.1448   0.5064
  39 H   :1s     0.0428   0.0099   0.0276   0.0069  -0.0724  -0.0019
  40 H   :1s     0.4641   0.6875   1.6054  -0.2124  -0.6184   0.2742
  41 H   :1s    -0.0185   0.0013  -0.0284   0.0190  -0.0222   0.0580
  42 H   :1s    -0.7242  -0.3916  -0.3907   1.5930   0.0608   0.2573
  43 H   :1s    -0.0078   0.0216  -0.0172   0.0035   0.0321   0.0123
  44 H   :1s    -1.5409   1.2167  -0.2565   0.0284  -0.5018   0.1994
  45 H   :1s     0.0027  -0.0091   0.0160  -0.0082   0.0091  -0.1132
  46 H   :1s    -0.2822  -2.0114   0.6155  -0.0964  -0.2556  -0.0104
  47 H   :1s     0.0150   0.0300   0.0257  -0.0006   0.0127  -0.0442
  48 H   :1s     1.0398   0.4095  -1.4523   0.1853   1.0819   0.1277
  49 O   :1s     0.0009  -0.0086  -0.0118  -0.0061  -0.0533  -0.0690
  50 O   :1s    -0.0162   0.0464  -0.0021   0.0128   0.0751   0.0751
  51 O   :1s     0.0997  -0.1191   0.3491   0.0707   0.9935   1.5092
  52 O   :2px   -0.0049   0.0575   0.0036   0.0062   0.1197   0.0298
  53 O   :2py    0.0687  -0.0483  -0.0299   0.0057  -0.0197  -0.1591
  54 O   :2pz   -0.0009  -0.0016  -0.0187  -0.1201   0.0036   0.0075
  55 O   :2px    0.0749   0.0081   0.1081   0.0222   0.4204   0.3296
  56 O   :2py    0.1209  -0.0815  -0.0996  -0.0116  -0.2109  -0.5989
  57 O   :2pz    0.0003   0.0018  -0.0212  -0.1365  -0.0010  -0.0060

  Total CPU  time used in SIRIUS :   0.29 seconds
  Total wall time used in SIRIUS :   0.63 seconds

 
     Date and time (Linux)  : Tue Mar 26 11:16:28 2024
     Host name              : node103                                 


                     .---------------------------------------.
                     | End of Wave Function Section (SIRIUS) |
                     `---------------------------------------'


 Center of mass dipole origin  :  -12.194057    3.375621    0.007535

 Center of mass gauge origin   :  -12.194057    3.375621    0.007535


                 .------------------------------------------------.
                 | Starting in Static Property Section (ABACUS) - |
                 `------------------------------------------------'


 
     Date and time (Linux)  : Tue Mar 26 11:16:28 2024
     Host name              : node103                                 
  Total CPU  time used in TWOINT:   0.47 seconds
  Total wall time used in TWOINT:   0.48 seconds


   ***************************************************************************
   ************************ FINAL RESULTS from ABACUS ************************
   ***************************************************************************


 
     Date and time (Linux)  : Tue Mar 26 11:16:29 2024
     Host name              : node103                                 


                             Molecular geometry (au)
                             -----------------------

 C        -13.5639438992            1.2556096265           -0.0075778018
 C        -10.8115011063            1.8044805795           -0.0025133357
 C         -9.7860034301            4.1231934321            0.0126044733
 C        -11.1843251735            6.5782311274           -0.0021353905
 H        -12.4907495355            6.6945815649           -1.6001633909
 H         -9.8409944603            8.1406755848           -0.1958323183
 H        -12.2114669115            6.8546035732            1.7706544819
 H        -14.0209363680           -0.7775845059           -0.0461849065
 H         -9.6054212016            0.1465293637            0.0020598015
 H         -7.7350458721            4.2714046521            0.0341095566
 O        -15.2251454438            2.8614232985            0.0349410361





                        Molecular wave function and energy
                        ----------------------------------

     Spatial symmetry   1 ( A   )
     Spin multiplicity  1
     2 * M_S            0
     State number       1
     Total charge       0

     Total energy       -229.6966234635 au (Hartrees)
                         -6250.36307280 eV
                           -603068.3919 kJ/mol
                           -144136.8050 kcal/mol


                   Scalar Breit-Pauli relativistic corrections
                   -------------------------------------------

     Darwin correction:                          0.4328601565 au
     Mass-velocity correction:                  -0.5426881577 au

     Total relativistic correction:             -0.1098280012 au ( 0.0478%)
     Non-relativistic + relativistic energy:  -229.8064514647 au



      (Note that these corrections are NOT included in the results below.)


                             Molecular gradient (au)
                             -----------------------

 C         -0.0135891627            0.0017130157            0.0001520096
 C          0.0032649458            0.0014061579           -0.0007155924
 C         -0.0033422928            0.0119286858            0.0005843240
 C         -0.0047454861           -0.0149421227            0.0030431049
 H         -0.0008435354            0.0015434963           -0.0112416927
 H          0.0055346783            0.0055926650           -0.0017550790
 H          0.0009965440            0.0014210774            0.0098228354
 H          0.0020396895           -0.0130179286           -0.0001518221
 H          0.0034495994           -0.0071357617           -0.0000095359
 H          0.0086196082            0.0033981849            0.0000675280
 O         -0.0013845881            0.0080925299            0.0002039202





                                  Dipole moment
                                  -------------

                 au               Debye          C m (/(10**-30)
              1.237607           3.145684          10.492872


                             Dipole moment components
                             ------------------------

                 au               Debye          C m (/(10**-30)

      x      1.19877071         3.04697103        10.16360135
      y     -0.30720361        -0.78083364        -2.60458067
      z     -0.01570157        -0.03990940        -0.13312344


   Units:   1 a.u. =   2.54175 Debye 
            1 a.u. =   8.47835 (10**-30) C m (SI)




   Interatomic separations (in Angstrom):
   --------------------------------------

            C           C           C           C           H           H     
            ------      ------      ------      ------      ------      ------
 C     :    0.000000
 C     :    1.485210    0.000000
 C     :    2.509900    1.341681    0.000000
 C     :    3.085285    2.533852    1.495123    0.000000
 H     :    3.052325    2.863697    2.151397    1.094000    0.000000
 H     :    4.143154    3.393616    2.129018    1.095191    1.761813    0.000000
 H     :    3.190023    2.927635    2.145239    1.094026    1.791874    1.766231
 H     :    1.102952    2.179892    3.427653    4.171995    4.119079    5.212588
 H     :    2.175430    1.084936    2.106536    3.504565    3.880324    4.233452
 H     :    3.472984    2.086840    1.088210    2.195945    2.953897    2.334334
 O     :    1.222850    2.401718    2.954725    2.905384    2.637596    3.992145

            H           H           H           H           O     
            ------      ------      ------      ------      ------
 H     :    0.000000
 H     :    4.260629    0.000000
 H     :    3.921545    2.387351    0.000000
 H     :    2.885198    4.266729    2.396765    0.000000
 O     :    2.802164    2.028832    3.302720    4.033207    0.000000


  Max    interatomic separation is    5.2126 Angstrom (    9.8504 Bohr)
  between atoms    8 and    6, "H     " and "H     ".

  Min HX interatomic separation is    1.0849 Angstrom (    2.0502 Bohr)

  Min YX interatomic separation is    1.2229 Angstrom (    2.3109 Bohr)


  Bond distances (Angstrom):
  --------------------------

                  atom 1     atom 2       distance
                  ------     ------       --------
  bond distance:  C          C            1.485210
  bond distance:  C          C            1.341681
  bond distance:  C          C            1.495123
  bond distance:  H          C            1.094000
  bond distance:  H          C            1.095191
  bond distance:  H          C            1.094026
  bond distance:  H          C            1.102952
  bond distance:  H          C            1.084936
  bond distance:  H          C            1.088210
  bond distance:  O          C            1.222850


  Bond angles (degrees):
  ----------------------

                  atom 1     atom 2     atom 3         angle
                  ------     ------     ------         -----
  bond angle:     C          C          H            113.943
  bond angle:     C          C          O            124.685
  bond angle:     H          C          O            121.372
  bond angle:     C          C          C            125.136
  bond angle:     C          C          H            114.757
  bond angle:     C          C          H            120.106
  bond angle:     C          C          C            126.473
  bond angle:     C          C          H            117.993
  bond angle:     C          C          H            115.533
  bond angle:     C          C          H            111.450
  bond angle:     C          C          H            109.587
  bond angle:     C          C          H            110.951
  bond angle:     H          C          H            107.178
  bond angle:     H          C          H            109.959
  bond angle:     H          C          H            107.566


  Total CPU  time used in ABACUS:   0.50 seconds
  Total wall time used in ABACUS:   0.51 seconds


                   .-------------------------------------------.
                   | End of Static Property Section (ABACUS) - |
                   `-------------------------------------------'


Building simple model Hessian by Roland Lindh ...

Initial model Hessian in internal coordinates has been calculated


           :::::::::::::::::::::::::::::::::::::::::::::::::::::::::::
           ::::::::::::::: Optimization Control Center :::::::::::::::
           :::::::::::::::::::::::::::::::::::::::::::::::::::::::::::



                                Next geometry (au)
                                ------------------

 C        -13.5388157115            1.2613400560           -0.0085457297
 C        -10.8112797612            1.8045184668            0.0145996612
 C         -9.7865058486            4.1088610384           -0.0014772687
 C        -11.1610139796            6.5914078605           -0.0035530461
 H        -12.5319166066            6.6865083727           -1.5250914408
 H         -9.8503733959            8.1586828296           -0.2024708970
 H        -12.2119142431            6.8503585351            1.7382641164
 H        -14.0163765132           -0.7407896288           -0.0541798603
 H         -9.6061543305            0.1651405471            0.0332171665
 H         -7.7506113225            4.2185101684            0.0124074044
 O        -15.2105716891            2.8486100511           -0.0032079002





   Interatomic separations (in Angstrom):
   --------------------------------------

            C           C           C           C           H           H     
            ------      ------      ------      ------      ------      ------
 C     :    0.000000
 C     :    1.471744    0.000000
 C     :    2.492658    1.334578    0.000000
 C     :    3.088491    2.539883    1.501625    0.000000
 H     :    3.028180    2.857805    2.149720    1.084942    0.000000
 H     :    4.140302    3.402649    2.145977    1.086258    1.763621    0.000000
 H     :    3.177229    2.917360    2.144645    1.085184    1.737341    1.759468
 H     :    1.089472    2.166137    3.405439    4.163948    4.082970    5.200447
 H     :    2.160523    1.076747    2.089189    3.498812    3.871200    4.233812
 H     :    3.439595    2.062777    1.078935    2.198586    2.961303    2.365377
 O     :    1.219891    2.392689    2.946749    2.918039    2.604325    3.994089

            H           H           H           H           O     
            ------      ------      ------      ------      ------
 H     :    0.000000
 H     :    4.236541    0.000000
 H     :    3.902635    2.382967    0.000000
 H     :    2.889154    4.228748    2.359043    0.000000
 O     :    2.802075    2.001975    3.288223    4.013658    0.000000


  Max    interatomic separation is    5.2004 Angstrom (    9.8274 Bohr)
  between atoms    8 and    6, "H     " and "H     ".

  Min HX interatomic separation is    1.0767 Angstrom (    2.0348 Bohr)

  Min YX interatomic separation is    1.2199 Angstrom (    2.3053 Bohr)


  Bond distances (Angstrom):
  --------------------------

                  atom 1     atom 2       distance
                  ------     ------       --------
  bond distance:  C          C            1.471744
  bond distance:  C          C            1.334578
  bond distance:  C          C            1.501625
  bond distance:  H          C            1.084942
  bond distance:  H          C            1.086258
  bond distance:  H          C            1.085184
  bond distance:  H          C            1.089472
  bond distance:  H          C            1.076747
  bond distance:  H          C            1.078935
  bond distance:  O          C            1.219891


  Bond angles (degrees):
  ----------------------

                  atom 1     atom 2     atom 3         angle
                  ------     ------     ------         -----
  bond angle:     C          C          H            114.683
  bond angle:     C          C          O            125.219
  bond angle:     H          C          O            120.094
  bond angle:     C          C          C            125.232
  bond angle:     C          C          H            115.060
  bond angle:     C          C          H            119.706
  bond angle:     C          C          C            127.052
  bond angle:     C          C          H            117.054
  bond angle:     C          C          H            115.889
  bond angle:     C          C          H            111.408
  bond angle:     C          C          H            111.024
  bond angle:     C          C          H            110.982
  bond angle:     H          C          H            108.639
  bond angle:     H          C          H            106.369
  bond angle:     H          C          H            108.246




                             Optimization information
                             ------------------------

 Iteration number               :       0
 End of optimization            :       F 
 Energy at this geometry is     :    -229.696623463531
 Norm of gradient               :       0.035963211889
 Norm of step                   :       0.211167162221
 Updated trust radius           :       0.500000000000
 Total effective Hessian index  :       0




 **************************************************************************************
 ****************** Output of molecule and basis set info suppressed ******************
 **************************************************************************************



                     .---------------------------------------.
                     | Starting in Integral Section (HERMIT) |
                     `---------------------------------------'



 ***************************************************************************************
 ****************** Output from **INTEGRALS input processing (HERMIT) ******************
 ***************************************************************************************


 - Using defaults, no **INTEGRALS input found

 Default print level:       -1

 Calculation of one- and two-electron Hamiltonian integrals.

 Center of mass  (bohr):    -12.183380979026      3.373603609572     -0.000526305334
 Operator center (bohr):      0.000000000000      0.000000000000      0.000000000000
 Gauge origin    (bohr):      0.000000000000      0.000000000000      0.000000000000
 Dipole origin   (bohr):      0.000000000000      0.000000000000      0.000000000000


                      Nuclear contribution to dipole moments
                      --------------------------------------

                 au               Debye          C m (/(10**-30)

      x   -459.43761173     -1167.77385324     -3895.27428751
      y    130.72405576       332.26738607      1108.32469997
      z     -0.01737501        -0.04416288        -0.14731150


  Total CPU  time used in HERMIT:   0.02 seconds
  Total wall time used in HERMIT:   0.02 seconds


                        .----------------------------------.
                        | End of Integral Section (HERMIT) |
                        `----------------------------------'



                   .--------------------------------------------.
                   | Starting in Wave Function Section (SIRIUS) |
                   `--------------------------------------------'

* Read MO coefficients from SIRIUS.RST with label "NEWORB  " and header info: 26Mar24  FOCKDIIS

 **********************************************************************
 *SIRIUS* a direct, restricted step, second order MCSCF program       *
 **********************************************************************

 (Wave function specification suppressed here, see output above for initial geometry.)


 ***********************************************
 ***** DIIS acceleration of SCF iterations *****
 ***********************************************

 C1-DIIS algorithm; max error vectors =    8

 Iter      Total energy        Error norm    Delta(E)  DIIS dim.
 -----------------------------------------------------------------------------

Calculating AOSUPINT

---> (Re)generating AOTWOINT

 Threshold for neglecting two-electron integrals:  1.00D-12
 HERMIT - Number of two-electron integrals written:     1305863 ( 95.5% )
 HERMIT - Megabytes written:                             14.957

  Total CPU  time used in TWOINT:   0.17 seconds
  Total wall time used in TWOINT:   0.17 seconds
  Time used in TWOINT     is       0.17 seconds
  CPU  time used in MAKE_AOTWOINT is   0.17 seconds
  WALL time used in MAKE_AOTWOINT is   0.17 seconds
     (Precalculated AO two-electron integrals are transformed to P-supermatrix elements.
      Threshold for discarding integrals :  1.00D-12 )

@  1    -229.697671489        7.90419D-02   -1.05D-03    1
      Virial theorem: -V/T =      1.999623
@    MULPOP   C       0.31; C      -0.28; C      -0.11; C      -0.49; H       0.21; H       0.15; H       0.20; H       0.16; H       0.19; H       0.19; 
@             O      -0.54; 
 -----------------------------------------------------------------------------
@  2    -229.698289957        2.50908D-02   -6.18D-04    2
      Virial theorem: -V/T =      1.999367
@    MULPOP   C       0.31; C      -0.29; C      -0.10; C      -0.49; H       0.21; H       0.15; H       0.20; H       0.16; H       0.19; H       0.19; 
@             O      -0.53; 
 -----------------------------------------------------------------------------
@  3    -229.698348782        1.40578D-02   -5.88D-05    3
      Virial theorem: -V/T =      1.999382
@    MULPOP   C       0.31; C      -0.29; C      -0.11; C      -0.49; H       0.21; H       0.15; H       0.20; H       0.16; H       0.19; H       0.19; 
@             O      -0.54; 
 -----------------------------------------------------------------------------
@  4    -229.698363277        4.06155D-03   -1.45D-05    4
      Virial theorem: -V/T =      1.999418
@    MULPOP   C       0.31; C      -0.29; C      -0.10; C      -0.49; H       0.21; H       0.15; H       0.20; H       0.16; H       0.19; H       0.19; 
@             O      -0.54; 
 -----------------------------------------------------------------------------
@  5    -229.698365214        1.56452D-03   -1.94D-06    5
      Virial theorem: -V/T =      1.999395
@    MULPOP   C       0.31; C      -0.29; C      -0.10; C      -0.49; H       0.21; H       0.15; H       0.20; H       0.16; H       0.19; H       0.19; 
@             O      -0.54; 
 -----------------------------------------------------------------------------
@  6    -229.698365872        6.07270D-04   -6.58D-07    6
      Virial theorem: -V/T =      1.999401
@    MULPOP   C       0.31; C      -0.29; C      -0.10; C      -0.49; H       0.21; H       0.15; H       0.20; H       0.16; H       0.19; H       0.19; 
@             O      -0.54; 
 -----------------------------------------------------------------------------
@  7    -229.698365999        2.86170D-04   -1.28D-07    7
      Virial theorem: -V/T =      1.999400
@    MULPOP   C       0.31; C      -0.29; C      -0.10; C      -0.49; H       0.21; H       0.15; H       0.20; H       0.16; H       0.19; H       0.19; 
@             O      -0.54; 
 -----------------------------------------------------------------------------
@  8    -229.698366025        1.32811D-04   -2.54D-08    8
      Virial theorem: -V/T =      1.999400
@    MULPOP   C       0.31; C      -0.29; C      -0.10; C      -0.49; H       0.21; H       0.15; H       0.20; H       0.16; H       0.19; H       0.19; 
@             O      -0.54; 
 -----------------------------------------------------------------------------
@  9    -229.698366033        6.02971D-05   -7.75D-09    8
      Virial theorem: -V/T =      1.999400
@    MULPOP   C       0.31; C      -0.29; C      -0.10; C      -0.49; H       0.21; H       0.15; H       0.20; H       0.16; H       0.19; H       0.19; 
@             O      -0.54; 
 -----------------------------------------------------------------------------
@ 10    -229.698366034        2.36966D-05   -1.67D-09    8
      Virial theorem: -V/T =      1.999400
@    MULPOP   C       0.31; C      -0.29; C      -0.10; C      -0.49; H       0.21; H       0.15; H       0.20; H       0.16; H       0.19; H       0.19; 
@             O      -0.54; 
 -----------------------------------------------------------------------------
@ 11    -229.698366034        6.70799D-06   -2.14D-10    8

@ *** DIIS converged in  11 iterations !
@     Converged SCF energy, gradient:   -229.698366034472    6.71D-06
    - total time used in SIRFCK :              0.00 seconds


 *** SCF orbital energy analysis ***

 Only the 20 lowest virtual orbital energies printed in each symmetry.

 Number of electrons        :   38
 Closed shell orbitals      :   19

 Sym       Hartree-Fock orbital energies

1 A     -20.56383249   -11.33987958   -11.27458075   -11.24126395   -11.22575233
         -1.40211765    -1.09909207    -0.97766695    -0.86762685    -0.74566335
         -0.69009440    -0.62719560    -0.61272769    -0.57873810    -0.53504452
         -0.52588007    -0.52470878    -0.41577539    -0.37356015     0.08769048
          0.23163541     0.24224655     0.27177264     0.28610402     0.32252064
          0.34122339     0.35387621     0.40020986     0.43380567     0.54500191
          0.56407365     0.73982356     0.74835464     0.76988825     0.80618718
          0.83065443     0.84296713     0.86732360     0.93402699

    E(LUMO) :     0.08769048 au (symmetry 1)
  - E(HOMO) :    -0.37356015 au (symmetry 1)
  ------------------------------------------
    gap     :     0.46125062 au

 --- Writing SIRIFC interface file

--------------------------------------------------------------------------------


     .--------------------------------------------------.
     | HF-SCF KT IPs [a.u. & eV] from Koopmans' theorem |
     `--------------------------------------------------'


     HF-SCF KT symmetry 1 ( A  ) in point group C1  -- 19 principal poles with pole strength 1

   ============  ============  ============  ============  ============
      20.563832     11.339880     11.274581     11.241264     11.225752
     559.570347    308.573820    306.796949    305.890352    305.468260
   ============  ============  ============  ============  ============

   ============  ============  ============  ============  ============
       1.402118      1.099092      0.977667      0.867627      0.745663
      38.153562     29.907817     26.603671     23.609328     20.290532
   ============  ============  ============  ============  ============

   ============  ============  ============  ============  ============
       0.690094      0.627196      0.612728      0.578738      0.535045
      18.778424     17.066860     16.673169     15.748265     14.559302
   ============  ============  ============  ============  ============

   ============  ============  ============  ============
       0.525880      0.524709      0.415775      0.373560
      14.309925     14.278052     11.313824     10.165089
   ============  ============  ============  ============

@ Summary of HF-SCF KT ionization potentials [eV]:

@ Symmetry 1 (A  ) :   559.570     308.574     306.797     305.890     305.468
@                       38.154      29.908      26.604      23.609      20.291
@                       18.778      17.067      16.673      15.748      14.559
@                       14.310      14.278      11.314      10.165

  === End of HF-SCF KT output ===
--------------------------------------------------------------------------------


 CPU and wall time for SCF :       0.264       0.625


                       .-----------------------------------.
                       | --- Final results from SIRIUS --- |
                       `-----------------------------------'


@    Spin multiplicity:           1
@    Spatial symmetry:            1 ( irrep  A   in C1  )
@    Total charge of molecule:    0

@    Final HF energy:            -229.698366034472                 
@    Nuclear repulsion:           160.376905851867
@    Electronic energy:          -390.075271886339

@    Final gradient norm:           0.000006707988

 
     Date and time (Linux)  : Tue Mar 26 11:16:30 2024
     Host name              : node103                                 

  Total CPU  time used in SIRIUS :   0.27 seconds
  Total wall time used in SIRIUS :   0.65 seconds

 
     Date and time (Linux)  : Tue Mar 26 11:16:30 2024
     Host name              : node103                                 


                     .---------------------------------------.
                     | End of Wave Function Section (SIRIUS) |
                     `---------------------------------------'

 Trust radius increased due to good ratio.
 Updated trust radius   0.50000

 Center of mass dipole origin  :  -12.183381    3.373604   -0.000526

 Center of mass gauge origin   :  -12.183381    3.373604   -0.000526


                 .------------------------------------------------.
                 | Starting in Static Property Section (ABACUS) - |
                 `------------------------------------------------'


 
     Date and time (Linux)  : Tue Mar 26 11:16:30 2024
     Host name              : node103                                 


[...]

   ============  ============  ============  ============  ============
      20.562423     11.338104     11.274805     11.240388     11.224933
     559.531982    308.525493    306.803038    305.866504    305.445974
   ============  ============  ============  ============  ============

   ============  ============  ============  ============  ============
       1.399898      1.100328      0.979494      0.868973      0.746979
      38.093172     29.941441     26.653400     23.645957     20.326344
   ============  ============  ============  ============  ============

   ============  ============  ============  ============  ============
       0.690924      0.628351      0.611513      0.578856      0.536981
      18.801009     17.098310     16.640103     15.751485     14.611991
   ============  ============  ============  ============  ============

   ============  ============  ============  ============
       0.525653      0.523967      0.416473      0.373390
      14.303738     14.257856     11.332808     10.160461
   ============  ============  ============  ============

@ Summary of HF-SCF KT ionization potentials [eV]:

@ Symmetry 1 (A  ) :   559.532     308.525     306.803     305.867     305.446
@                       38.093      29.941      26.653      23.646      20.326
@                       18.801      17.098      16.640      15.751      14.612
@                       14.304      14.258      11.333      10.160

  === End of HF-SCF KT output ===
--------------------------------------------------------------------------------


 CPU and wall time for SCF :       0.245       0.412


                       .-----------------------------------.
                       | --- Final results from SIRIUS --- |
                       `-----------------------------------'


@    Spin multiplicity:           1
@    Spatial symmetry:            1 ( irrep  A   in C1  )
@    Total charge of molecule:    0

@    Final HF energy:            -229.698540185617                 
@    Nuclear repulsion:           160.613237406629
@    Electronic energy:          -390.311777592247

@    Final gradient norm:           0.000005828260

 
     Date and time (Linux)  : Tue Mar 26 11:16:39 2024
     Host name              : node103                                 

  Total CPU  time used in SIRIUS :   0.25 seconds
  Total wall time used in SIRIUS :   0.44 seconds

 
     Date and time (Linux)  : Tue Mar 26 11:16:39 2024
     Host name              : node103                                 


                     .---------------------------------------.
                     | End of Wave Function Section (SIRIUS) |
                     `---------------------------------------'

 Trust radius increased due to good ratio.
 Updated trust radius   0.00451

 Center of mass dipole origin  :  -12.180196    3.373630    0.006554

 Center of mass gauge origin   :  -12.180196    3.373630    0.006554


                 .------------------------------------------------.
                 | Starting in Static Property Section (ABACUS) - |
                 `------------------------------------------------'


 
     Date and time (Linux)  : Tue Mar 26 11:16:39 2024
     Host name              : node103                                 


   ***************************************************************************
   ************************ FINAL RESULTS from ABACUS ************************
   ***************************************************************************


 
     Date and time (Linux)  : Tue Mar 26 11:16:39 2024
     Host name              : node103                                 
  Total CPU  time used in ABACUS:   0.50 seconds
  Total wall time used in ABACUS:   0.51 seconds


                   .-------------------------------------------.
                   | End of Static Property Section (ABACUS) - |
                   `-------------------------------------------'



            *********************************************************
            *** Output from geometry convergence control (MINEND) ***
            *********************************************************


 Energy converged       yes 
 Gradient converged     yes 
 Step converged         no  
 Conditions fullfilled   2
 Required conditions     2
 Totally sym. index      0
 Hessian index           0
 End of optimization    yes 


           :::::::::::::::::::::::::::::::::::::::::::::::::::::::::::
           ::::::::::::::: Optimization Control Center :::::::::::::::
           :::::::::::::::::::::::::::::::::::::::::::::::::::::::::::



                               Final geometry (au)
                               -------------------

 C        -13.5233044372            1.2627314770           -0.0064715514
 C        -10.8134171822            1.8039639145            0.0071192780
 C         -9.7890209873            4.1090900511            0.0054302804
 C        -11.1619398490            6.5924655491           -0.0095305849
 H        -12.5147148950            6.6853222405           -1.5396740711
 H         -9.8462206580            8.1459323857           -0.1849135320
 H        -12.2411011608            6.8401187033            1.7135904091
 H        -14.0272047494           -0.7239578476           -0.0544896114
 H         -9.5977953134            0.1782170212            0.0163198938
 H         -7.7578401380            4.2120908617            0.0194168360
 O        -15.2029740312            2.8471739403            0.0331648590





                             Optimization information
                             ------------------------

 Iteration number               :       8
 End of optimization            :       T 
 Energy at this geometry is     :    -229.698540185617
 Energy change from last geom.  :      -0.000000067846
 Predicted change               :      -0.000000082510
 Ratio, actual/predicted change :       0.822280249360
 Norm of gradient               :       0.000080284893
 Norm of step                   :       0.004508960887
 Updated trust radius           :       0.004509070038
 Total effective Hessian index  :       0




          <<<<<<<<<<<<<<<<<<<<<<<<<<<<<<<<<<<<<<<<<<<<<<<<<<<<<<<<<<<<<<
          <<<<<<<<<<<<<<<<<<<<  End of Optimization <<<<<<<<<<<<<<<<<<<<
          <<<<<<<<<<<<<<<<<<<<<<<<<<<<<<<<<<<<<<<<<<<<<<<<<<<<<<<<<<<<<<



                              Final geometry (bohr)
                              ---------------------

 C        -13.5233044372            1.2627314770           -0.0064715514
 C        -10.8134171822            1.8039639145            0.0071192780
 C         -9.7890209873            4.1090900511            0.0054302804
 C        -11.1619398490            6.5924655491           -0.0095305849
 H        -12.5147148950            6.6853222405           -1.5396740711
 H         -9.8462206580            8.1459323857           -0.1849135320
 H        -12.2411011608            6.8401187033            1.7135904091
 H        -14.0272047494           -0.7239578476           -0.0544896114
 H         -9.5977953134            0.1782170212            0.0163198938
 H         -7.7578401380            4.2120908617            0.0194168360
 O        -15.2029740312            2.8471739403            0.0331648590





                      Final geometry (xyz format; angstrom)
                      -------------------------------------

11

C       -7.1562245229            0.6682087210           -0.0034245975
C       -5.7222139437            0.9546165927            0.0037673597
C       -5.1801268225            2.1744368121            0.0028735806
C       -5.9066441964            3.4885825315           -0.0050433683
H       -6.6225019221            3.5377201765           -0.8147604305
H       -5.2103955847            4.3106417792           -0.0978520271
H       -6.4777117694            3.6196349370            0.9067929932
H       -7.4228770846           -0.3831019945           -0.0288346606
H       -5.0789345538            0.0943083862            0.0086361159
H       -4.1052722061            2.2289424938            0.0102749471
O       -8.0450673937            1.5066595644            0.0175500876



@ Iter     Energy        Change       GradNorm  Index   StepLen    TrustRad #Rej
@ ------------------------------------------------------------------------------
@   0     -229.696623     0.000000     0.035963    0    0.211167*   0.500000   0 
@   1     -229.698366    -0.001743     0.013549    0    0.082141*   0.500000   1 
@   2     -229.698417    -0.000051     0.010230    0    0.082141    0.082141   0 
@   3     -229.698475    -0.000058     0.006777    0    0.057498    0.057499   0 
@   4     -229.698535    -0.000060     0.001550    0    0.018139*   0.057498   1 
@   5     -229.698539    -0.000005     0.000647    0    0.009435*   0.018139   0 
@   6     -229.698540    -0.000001     0.000316    0    0.004509*   0.009435   0 
@   7     -229.698540    -0.000000     0.000185    0    0.003711*   0.004509   0 
@   8     -229.698540    -0.000000     0.000080    0    0.004509    0.004509   0 

@  *) Newton step taken.


   Interatomic separations (in Angstrom):
   --------------------------------------

            C           C           C           C           H           H     
            ------      ------      ------      ------      ------      ------
 C     :    0.000000
 C     :    1.462350    0.000000
 C     :    2.484698    1.334849    0.000000
 C     :    3.084795    2.540684    1.501622    0.000000
 H     :    3.029393    2.855334    2.146512    1.081900    0.000000
 H     :    4.130676    3.396349    2.138793    1.081276    1.762217    0.000000
 H     :    3.162245    2.913512    2.142287    1.083854    1.729572    1.758662
 H     :    1.084898    2.163980    3.401755    4.158061    4.078128    5.189515
 H     :    2.155143    1.074226    2.082596    3.493764    3.862340    4.219726
 H     :    3.427009    2.058749    1.076261    2.198151    2.954662    2.359335
 O     :    1.222081    2.387591    2.941773    2.915713    2.615653    3.988859

            H           H           H           H           O     
            ------      ------      ------      ------      ------
 H     :    0.000000
 H     :    4.217895    0.000000
 H     :    3.897588    2.392361    0.000000
 H     :    2.892445    4.222654    2.346206    0.000000
 O     :    2.777053    1.990093    3.285234    4.005463    0.000000


  Max    interatomic separation is    5.1895 Angstrom (    9.8068 Bohr)
  between atoms    8 and    6, "H     " and "H     ".

  Min HX interatomic separation is    1.0742 Angstrom (    2.0300 Bohr)

  Min YX interatomic separation is    1.2221 Angstrom (    2.3094 Bohr)


  Bond distances (Angstrom):
  --------------------------

                  atom 1     atom 2       distance
                  ------     ------       --------
  bond distance:  C          C            1.462350
  bond distance:  C          C            1.334849
  bond distance:  C          C            1.501622
  bond distance:  H          C            1.081900
  bond distance:  H          C            1.081276
  bond distance:  H          C            1.083854
  bond distance:  H          C            1.084898
  bond distance:  H          C            1.074226
  bond distance:  H          C            1.076261
  bond distance:  O          C            1.222081


  Bond angles (degrees):
  ----------------------

                  atom 1     atom 2     atom 3         angle
                  ------     ------     ------         -----
  bond angle:     C          C          H            115.527
  bond angle:     C          C          O            125.364
  bond angle:     H          C          O            119.110
  bond angle:     C          C          C            125.254
  bond angle:     C          C          H            115.493
  bond angle:     C          C          H            119.253
  bond angle:     C          C          C            127.104
  bond angle:     C          C          H            116.862
  bond angle:     C          C          H            116.034
  bond angle:     C          C          H            111.335
  bond angle:     C          C          H            110.748
  bond angle:     C          C          H            110.873
  bond angle:     H          C          H            109.104
  bond angle:     H          C          H            105.993
  bond angle:     H          C          H            108.636



@ Geometry converged in  9 iterations!

@ Energy at final geometry is       :    -229.698540 a.u.
@ Energy change during optimization :      -0.001917 a.u.
@                                             -5.032 kJ/mol
 

 Center of mass dipole origin  :  -12.180196    3.373630    0.006554

 Center of mass gauge origin   :  -12.180196    3.373630    0.006554


                 .------------------------------------------------.
                 | Starting in Static Property Section (ABACUS) - |
                 `------------------------------------------------'


 
     Date and time (Linux)  : Tue Mar 26 11:16:39 2024
     Host name              : node103                                 


   ***************************************************************************
   ************************ FINAL RESULTS from ABACUS ************************
   ***************************************************************************


 
     Date and time (Linux)  : Tue Mar 26 11:16:39 2024
     Host name              : node103                                 


                             Molecular geometry (au)
                             -----------------------

 C        -13.5233044372            1.2627314770           -0.0064715514
 C        -10.8134171822            1.8039639145            0.0071192780
 C         -9.7890209873            4.1090900511            0.0054302804
 C        -11.1619398490            6.5924655491           -0.0095305849
 H        -12.5147148950            6.6853222405           -1.5396740711
 H         -9.8462206580            8.1459323857           -0.1849135320
 H        -12.2411011608            6.8401187033            1.7135904091
 H        -14.0272047494           -0.7239578476           -0.0544896114
 H         -9.5977953134            0.1782170212            0.0163198938
 H         -7.7578401380            4.2120908617            0.0194168360
 O        -15.2029740312            2.8471739403            0.0331648590





                        Molecular wave function and energy
                        ----------------------------------

     Spatial symmetry   1 ( A   )
     Spin multiplicity  1
     2 * M_S            0
     State number       1
     Total charge       0

     Total energy       -229.6985401856 au (Hartrees)
                         -6250.41522946 eV
                           -603073.4243 kJ/mol
                           -144138.0077 kcal/mol


                   Scalar Breit-Pauli relativistic corrections
                   -------------------------------------------

     Darwin correction:                          0.4328807403 au
     Mass-velocity correction:                  -0.5427307838 au

     Total relativistic correction:             -0.1098500435 au ( 0.0478%)
     Non-relativistic + relativistic energy:  -229.8083902291 au



      (Note that these corrections are NOT included in the results below.)


                                  Dipole moment
                                  -------------

                 au               Debye          C m (/(10**-30)
              1.251205           3.180246          10.608160


                             Dipole moment components
                             ------------------------

                 au               Debye          C m (/(10**-30)

      x      1.21723627         3.09390581        10.32015891
      y     -0.28914981        -0.73494546        -2.45151418
      z     -0.01558061        -0.03960197        -0.13209795


   Units:   1 a.u. =   2.54175 Debye 
            1 a.u. =   8.47835 (10**-30) C m (SI)




   Interatomic separations (in Angstrom):
   --------------------------------------

            C           C           C           C           H           H     
            ------      ------      ------      ------      ------      ------
 C     :    0.000000
 C     :    1.462350    0.000000
 C     :    2.484698    1.334849    0.000000
 C     :    3.084795    2.540684    1.501622    0.000000
 H     :    3.029393    2.855334    2.146512    1.081900    0.000000
 H     :    4.130676    3.396349    2.138793    1.081276    1.762217    0.000000
 H     :    3.162245    2.913512    2.142287    1.083854    1.729572    1.758662
 H     :    1.084898    2.163980    3.401755    4.158061    4.078128    5.189515
 H     :    2.155143    1.074226    2.082596    3.493764    3.862340    4.219726
 H     :    3.427009    2.058749    1.076261    2.198151    2.954662    2.359335
 O     :    1.222081    2.387591    2.941773    2.915713    2.615653    3.988859

            H           H           H           H           O     
            ------      ------      ------      ------      ------
 H     :    0.000000
 H     :    4.217895    0.000000
 H     :    3.897588    2.392361    0.000000
 H     :    2.892445    4.222654    2.346206    0.000000
 O     :    2.777053    1.990093    3.285234    4.005463    0.000000


  Max    interatomic separation is    5.1895 Angstrom (    9.8068 Bohr)
  between atoms    8 and    6, "H     " and "H     ".

  Min HX interatomic separation is    1.0742 Angstrom (    2.0300 Bohr)

  Min YX interatomic separation is    1.2221 Angstrom (    2.3094 Bohr)


  Bond distances (Angstrom):
  --------------------------

                  atom 1     atom 2       distance
                  ------     ------       --------
  bond distance:  C          C            1.462350
  bond distance:  C          C            1.334849
  bond distance:  C          C            1.501622
  bond distance:  H          C            1.081900
  bond distance:  H          C            1.081276
  bond distance:  H          C            1.083854
  bond distance:  H          C            1.084898
  bond distance:  H          C            1.074226
  bond distance:  H          C            1.076261
  bond distance:  O          C            1.222081


  Bond angles (degrees):
  ----------------------

                  atom 1     atom 2     atom 3         angle
                  ------     ------     ------         -----
  bond angle:     C          C          H            115.527
  bond angle:     C          C          O            125.364
  bond angle:     H          C          O            119.110
  bond angle:     C          C          C            125.254
  bond angle:     C          C          H            115.493
  bond angle:     C          C          H            119.253
  bond angle:     C          C          C            127.104
  bond angle:     C          C          H            116.862
  bond angle:     C          C          H            116.034
  bond angle:     C          C          H            111.335
  bond angle:     C          C          H            110.748
  bond angle:     C          C          H            110.873
  bond angle:     H          C          H            109.104
  bond angle:     H          C          H            105.993
  bond angle:     H          C          H            108.636


  Total CPU  time used in ABACUS:   0.01 seconds
  Total wall time used in ABACUS:   0.01 seconds


                   .-------------------------------------------.
                   | End of Static Property Section (ABACUS) - |
                   `-------------------------------------------'

  Total CPU  time used in DALTON:   7.98 seconds
  Total wall time used in DALTON:  11.67 seconds

 
     Date and time (Linux)  : Tue Mar 26 11:16:39 2024
     Host name              : node103                                 
