[Molden Format]
[GTO]
    1 0
 s  10 1.00
    3047.5249000    0.0018347000
     457.3695100    0.0140373000
     103.9486900    0.0688426000
      29.2101550    0.2321844000
       9.2866630    0.4679413000
       3.1639270    0.3623120000
       7.8682724    0.0000000000
       1.8812885    0.0000000000
       0.5442493    0.0000000000
       0.1687144    0.0000000000
 s  10 1.00
    3047.5249000    0.0000000000
     457.3695100    0.0000000000
     103.9486900    0.0000000000
      29.2101550    0.0000000000
       9.2866630    0.0000000000
       3.1639270    0.0000000000
       7.8682724   -0.1193324000
       1.8812885   -0.1608542000
       0.5442493    1.1434564000
       0.1687144    0.0000000000
 s  10 1.00
    3047.5249000    0.0000000000
     457.3695100    0.0000000000
     103.9486900    0.0000000000
      29.2101550    0.0000000000
       9.2866630    0.0000000000
       3.1639270    0.0000000000
       7.8682724    0.0000000000
       1.8812885    0.0000000000
       0.5442493    0.0000000000
       0.1687144    1.0000000000
 p   4 1.00
       7.8682724    0.0689991000
       1.8812885    0.3164240000
       0.5442493    0.7443083000
       0.1687144    0.0000000000
 p   4 1.00
       7.8682724    0.0000000000
       1.8812885    0.0000000000
       0.5442493    0.0000000000
       0.1687144    1.0000000000

    2 0
 s  10 1.00
    3047.5249000    0.0018347000
     457.3695100    0.0140373000
     103.9486900    0.0688426000
      29.2101550    0.2321844000
       9.2866630    0.4679413000
       3.1639270    0.3623120000
       7.8682724    0.0000000000
       1.8812885    0.0000000000
       0.5442493    0.0000000000
       0.1687144    0.0000000000
 s  10 1.00
    3047.5249000    0.0000000000
     457.3695100    0.0000000000
     103.9486900    0.0000000000
      29.2101550    0.0000000000
       9.2866630    0.0000000000
       3.1639270    0.0000000000
       7.8682724   -0.1193324000
       1.8812885   -0.1608542000
       0.5442493    1.1434564000
       0.1687144    0.0000000000
 s  10 1.00
    3047.5249000    0.0000000000
     457.3695100    0.0000000000
     103.9486900    0.0000000000
      29.2101550    0.0000000000
       9.2866630    0.0000000000
       3.1639270    0.0000000000
       7.8682724    0.0000000000
       1.8812885    0.0000000000
       0.5442493    0.0000000000
       0.1687144    1.0000000000
 p   4 1.00
       7.8682724    0.0689991000
       1.8812885    0.3164240000
       0.5442493    0.7443083000
       0.1687144    0.0000000000
 p   4 1.00
       7.8682724    0.0000000000
       1.8812885    0.0000000000
       0.5442493    0.0000000000
       0.1687144    1.0000000000

    3 0
 s  10 1.00
    3047.5249000    0.0018347000
     457.3695100    0.0140373000
     103.9486900    0.0688426000
      29.2101550    0.2321844000
       9.2866630    0.4679413000
       3.1639270    0.3623120000
       7.8682724    0.0000000000
       1.8812885    0.0000000000
       0.5442493    0.0000000000
       0.1687144    0.0000000000
 s  10 1.00
    3047.5249000    0.0000000000
     457.3695100    0.0000000000
     103.9486900    0.0000000000
      29.2101550    0.0000000000
       9.2866630    0.0000000000
       3.1639270    0.0000000000
       7.8682724   -0.1193324000
       1.8812885   -0.1608542000
       0.5442493    1.1434564000
       0.1687144    0.0000000000
 s  10 1.00
    3047.5249000    0.0000000000
     457.3695100    0.0000000000
     103.9486900    0.0000000000
      29.2101550    0.0000000000
       9.2866630    0.0000000000
       3.1639270    0.0000000000
       7.8682724    0.0000000000
       1.8812885    0.0000000000
       0.5442493    0.0000000000
       0.1687144    1.0000000000
 p   4 1.00
       7.8682724    0.0689991000
       1.8812885    0.3164240000
       0.5442493    0.7443083000
       0.1687144    0.0000000000
 p   4 1.00
       7.8682724    0.0000000000
       1.8812885    0.0000000000
       0.5442493    0.0000000000
       0.1687144    1.0000000000

    4 0
 s  10 1.00
    3047.5249000    0.0018347000
     457.3695100    0.0140373000
     103.9486900    0.0688426000
      29.2101550    0.2321844000
       9.2866630    0.4679413000
       3.1639270    0.3623120000
       7.8682724    0.0000000000
       1.8812885    0.0000000000
       0.5442493    0.0000000000
       0.1687144    0.0000000000
 s  10 1.00
    3047.5249000    0.0000000000
     457.3695100    0.0000000000
     103.9486900    0.0000000000
      29.2101550    0.0000000000
       9.2866630    0.0000000000
       3.1639270    0.0000000000
       7.8682724   -0.1193324000
       1.8812885   -0.1608542000
       0.5442493    1.1434564000
       0.1687144    0.0000000000
 s  10 1.00
    3047.5249000    0.0000000000
     457.3695100    0.0000000000
     103.9486900    0.0000000000
      29.2101550    0.0000000000
       9.2866630    0.0000000000
       3.1639270    0.0000000000
       7.8682724    0.0000000000
       1.8812885    0.0000000000
       0.5442493    0.0000000000
       0.1687144    1.0000000000
 p   4 1.00
       7.8682724    0.0689991000
       1.8812885    0.3164240000
       0.5442493    0.7443083000
       0.1687144    0.0000000000
 p   4 1.00
       7.8682724    0.0000000000
       1.8812885    0.0000000000
       0.5442493    0.0000000000
       0.1687144    1.0000000000

    5 0
 s   4 1.00
      18.7311370    0.0334946000
       2.8253937    0.2347269500
       0.6401217    0.8137573300
       0.1612778    0.0000000000
 s   4 1.00
      18.7311370    0.0000000000
       2.8253937    0.0000000000
       0.6401217    0.0000000000
       0.1612778    1.0000000000

    6 0
 s   4 1.00
      18.7311370    0.0334946000
       2.8253937    0.2347269500
       0.6401217    0.8137573300
       0.1612778    0.0000000000
 s   4 1.00
      18.7311370    0.0000000000
       2.8253937    0.0000000000
       0.6401217    0.0000000000
       0.1612778    1.0000000000

    7 0
 s   4 1.00
      18.7311370    0.0334946000
       2.8253937    0.2347269500
       0.6401217    0.8137573300
       0.1612778    0.0000000000
 s   4 1.00
      18.7311370    0.0000000000
       2.8253937    0.0000000000
       0.6401217    0.0000000000
       0.1612778    1.0000000000

    8 0
 s   4 1.00
      18.7311370    0.0334946000
       2.8253937    0.2347269500
       0.6401217    0.8137573300
       0.1612778    0.0000000000
 s   4 1.00
      18.7311370    0.0000000000
       2.8253937    0.0000000000
       0.6401217    0.0000000000
       0.1612778    1.0000000000

    9 0
 s   4 1.00
      18.7311370    0.0334946000
       2.8253937    0.2347269500
       0.6401217    0.8137573300
       0.1612778    0.0000000000
 s   4 1.00
      18.7311370    0.0000000000
       2.8253937    0.0000000000
       0.6401217    0.0000000000
       0.1612778    1.0000000000

   10 0
 s   4 1.00
      18.7311370    0.0334946000
       2.8253937    0.2347269500
       0.6401217    0.8137573300
       0.1612778    0.0000000000
 s   4 1.00
      18.7311370    0.0000000000
       2.8253937    0.0000000000
       0.6401217    0.0000000000
       0.1612778    1.0000000000

   11 0
 s  10 1.00
    5484.6717000    0.0018311000
     825.2349500    0.0139501000
     188.0469600    0.0684451000
      52.9645000    0.2327143000
      16.8975700    0.4701930000
       5.7996353    0.3585209000
      15.5396160    0.0000000000
       3.5999336    0.0000000000
       1.0137618    0.0000000000
       0.2700058    0.0000000000
 s  10 1.00
    5484.6717000    0.0000000000
     825.2349500    0.0000000000
     188.0469600    0.0000000000
      52.9645000    0.0000000000
      16.8975700    0.0000000000
       5.7996353    0.0000000000
      15.5396160   -0.1107775000
       3.5999336   -0.1480263000
       1.0137618    1.1307670000
       0.2700058    0.0000000000
 s  10 1.00
    5484.6717000    0.0000000000
     825.2349500    0.0000000000
     188.0469600    0.0000000000
      52.9645000    0.0000000000
      16.8975700    0.0000000000
       5.7996353    0.0000000000
      15.5396160    0.0000000000
       3.5999336    0.0000000000
       1.0137618    0.0000000000
       0.2700058    1.0000000000
 p   4 1.00
      15.5396160    0.0708743000
       3.5999336    0.3397528000
       1.0137618    0.7271586000
       0.2700058    0.0000000000
 p   4 1.00
      15.5396160    0.0000000000
       3.5999336    0.0000000000
       1.0137618    0.0000000000
       0.2700058    1.0000000000

[SCFCONV]
scf-first  1  THROUGH  13
     -228.8231324271
     -229.5544239098
     -229.6865397827
     -229.6953462886
     -229.6964870521
     -229.6966023918
     -229.6966215338
     -229.6966232898
     -229.6966234388
     -229.6966234604
     -229.6966234633
     -229.6966234635
     -229.6966234635
[GEOMETRIES] XYZ
   11

C             -7.1777300000         0.6644400000        -0.0040100000
C             -5.7212000000         0.9548900000        -0.0013300000
C             -5.1785300000         2.1819000000         0.0066700000
C             -5.9184900000         3.4810500000        -0.0011300000
H             -6.6098200000         3.5426200000        -0.8467700000
H             -5.2076300000         4.3078600000        -0.1036300000
H             -6.4620300000         3.6273000000         0.9369900000
H             -7.4195600000        -0.4114800000        -0.0244400000
H             -5.0829700000         0.0775400000         0.0010900000
H             -4.0932100000         2.2603300000         0.0180500000
O             -8.0568000000         1.5142000000         0.0184900000
   11

C             -7.1777300000         0.6644400000        -0.0040100000
C             -5.7212000000         0.9548900000        -0.0013300000
C             -5.1785300000         2.1819000000         0.0066700000
C             -5.9184900000         3.4810500000        -0.0011300000
H             -6.6098200000         3.5426200000        -0.8467700000
H             -5.2076300000         4.3078600000        -0.1036300000
H             -6.4620300000         3.6273000000         0.9369900000
H             -7.4195600000        -0.4114800000        -0.0244400000
H             -5.0829700000         0.0775400000         0.0010900000
H             -4.0932100000         2.2603300000         0.0180500000
O             -8.0568000000         1.5142000000         0.0184900000
   11

C             -7.1644327358         0.6674724127        -0.0045222054
C             -5.7210828692         0.9549100491         0.0077258080
C             -5.1787958684         2.1743156239        -0.0007817369
C             -5.9061542474         3.4880228269        -0.0018801910
H             -6.6316046758         3.5383478507        -0.8070436349
H             -5.2125931190         4.3173890236        -0.1071429845
H             -6.4622667177         3.6250536226         0.9198497567
H             -7.4171470288        -0.3920089896        -0.0286707474
H             -5.0833579551         0.0873886141         0.0175777675
H             -4.1014468817         2.2323394446         0.0065657157
O             -8.0490879011         1.5074195215        -0.0016975477
   11

C             -7.1610359533         0.6680437192        -0.0130810290
C             -5.7213381904         0.9551975830        -0.0008345342
C             -5.1792138295         2.1741250766         0.0068702910
C             -5.9056037953         3.4887807125        -0.0052091052
H             -6.6203944220         3.5385025639        -0.8176257272
H             -5.2101247340         4.3149482973        -0.0977957485
H             -6.4783936535         3.6230378067         0.9055705024
H             -7.4183079561        -0.3881038837        -0.0174092899
H             -5.0823866248         0.0903878321        -0.0007444601
H             -4.1034218083         2.2296375349         0.0184484270
O             -8.0477490328         1.5060927576         0.0217906736
   11

C             -7.1541286171         0.6679943646         0.0040803525
C             -5.7219505484         0.9553821935         0.0008209457
C             -5.1800950551         2.1745055883         0.0096363034
C             -5.9061827299         3.4896755095        -0.0080867083
H             -6.6196949714         3.5357161219        -0.8180383648
H             -5.2079448033         4.3074624639        -0.0991159792
H             -6.4836618787         3.6229609751         0.8987640955
H             -7.4224674795        -0.3809865956        -0.0367515283
H             -5.0792824630         0.0963722114        -0.0028159908
H             -4.1069151187         2.2270721021         0.0201974372
O             -8.0456463350         1.5044950653         0.0312894370
   11

C             -7.1559910358         0.6674313854        -0.0047527741
C             -5.7225852309         0.9550444974         0.0020884805
C             -5.1805156582         2.1747319806         0.0006837802
C             -5.9062996364         3.4895733804        -0.0041327557
H             -6.6250064836         3.5387347530        -0.8106383970
H             -5.2090871495         4.3095507431        -0.0996585921
H             -6.4743455587         3.6214509654         0.9094163982
H             -7.4220414751        -0.3838638627        -0.0269136595
H             -5.0795027758         0.0950241402         0.0128287401
H             -4.1061143709         2.2285954876         0.0092115787
O             -8.0464806252         1.5043765296         0.0118472007
   11

C             -7.1566585720         0.6678670362        -0.0040961305
C             -5.7223666185         0.9548106177         0.0041539966
C             -5.1802591147         2.1745667803         0.0032622094
C             -5.9064417863         3.4890072219        -0.0047814577
H             -6.6231632512         3.5373529214        -0.8137598869
H             -5.2100014074         4.3106963594        -0.0995806963
H             -6.4761038868         3.6215622991         0.9078223642
H             -7.4222141365        -0.3839601297        -0.0285994939
H             -5.0794243270         0.0940858854         0.0077668603
H             -4.1053759518         2.2290432882         0.0113504823
O             -8.0459609478         1.5056177201         0.0164417524
   11

C             -7.1562701214         0.6684633050        -0.0037197298
C             -5.7220614320         0.9546408550         0.0030445504
C             -5.1799763581         2.1743932860         0.0031276471
C             -5.9067175459         3.4884699003        -0.0051117930
H             -6.6229072060         3.5370888339        -0.8145847608
H             -5.2107534708         4.3107431676        -0.0984546251
H             -6.4773441423         3.6197493304         0.9070020231
H             -7.4228572430        -0.3829440937        -0.0288975521
H             -5.0790238397         0.0940959779         0.0085815970
H             -4.1051049879         2.2289715514         0.0111363320
O             -8.0449536530         1.5069778862         0.0178563112
   11

C             -7.1561115406         0.6683975058        -0.0034314268
C             -5.7221144451         0.9546111357         0.0035546650
C             -5.1800278314         2.1744013986         0.0025870385
C             -5.9067290940         3.4884680132        -0.0051775792
H             -6.6229320642         3.5374703825        -0.8145618575
H             -5.2106364135         4.3105788443        -0.0981621834
H             -6.4774673926         3.6193587639         0.9068785063
H             -7.4229859880        -0.3828243910        -0.0287689007
H             -5.0788941174         0.0942947803         0.0085249569
H             -4.1052090470         2.2289260970         0.0110271691
O             -8.0448620662         1.5069674696         0.0175096119
   11

C             -7.1562245229         0.6682087210        -0.0034245975
C             -5.7222139437         0.9546165927         0.0037673597
C             -5.1801268225         2.1744368121         0.0028735806
C             -5.9066441964         3.4885825315        -0.0050433683
H             -6.6225019221         3.5377201765        -0.8147604305
H             -5.2103955847         4.3106417792        -0.0978520271
H             -6.4777117694         3.6196349370         0.9067929932
H             -7.4228770846        -0.3831019945        -0.0288346606
H             -5.0789345538         0.0943083862         0.0086361159
H             -4.1052722061         2.2289424938         0.0102749471
O             -8.0450673937         1.5066595644         0.0175500876
[GEOCONV]
energy
     -229.6966234635
     -229.6966234635
     -229.6983660345
     -229.6984173859
     -229.6984752472
     -229.6985348707
     -229.6985394890
     -229.6985400289
     -229.6985401178
     -229.6985401856
[TITLE]
*** Dalton interface to Molden, wave function type : HF            26Mar24   11:
[Atoms] AU
C          1     6       -13.5233044372         1.2627314770        -0.006471551
C          2     6       -10.8134171822         1.8039639145         0.007119278
C          3     6        -9.7890209873         4.1090900511         0.005430280
C          4     6       -11.1619398490         6.5924655491        -0.009530584
H          5     1       -12.5147148950         6.6853222405        -1.539674071
H          6     1        -9.8462206580         8.1459323857        -0.184913532
H          7     1       -12.2411011608         6.8401187033         1.713590409
H          8     1       -14.0272047494        -0.7239578476        -0.054489611
H          9     1        -9.5977953134         0.1782170212         0.016319893
H         10     1        -7.7578401380         4.2120908617         0.019416836
O         11     8       -15.2029740312         2.8471739403         0.033164859
[5D7F]
[9G]
[MO]
Sym= A
Ene=  -20.5624
Spin= Alpha
Occup=  2.0000
    1        0.000146
    2        0.000167
    3        0.006058
    4       -0.000089
    5       -0.000126
    6       -0.000003
    7       -0.003604
    8        0.005746
    9        0.000121
   10        0.000049
   11        0.000307
   12       -0.002651
   13        0.000193
   14        0.000201
   15        0.000001
   16       -0.000258
   17       -0.004259
   18       -0.000031
   19       -0.000008
   20       -0.000055
   21        0.003606
   22       -0.000053
   23       -0.000116
   24       -0.000003
   25       -0.000646
   26       -0.001466
   27        0.000009
   28       -0.000003
   29       -0.000118
   30        0.000135
   31        0.000082
   32        0.000113
   33       -0.000015
   34       -0.000155
   35       -0.000158
   36        0.000065
   37       -0.000057
   38       -0.000061
   39       -0.000021
   40        0.000264
   41       -0.000033
   42       -0.000151
   43        0.000076
   44        0.001233
   45       -0.000264
   46       -0.000893
   47       -0.000091
   48       -0.000015
   49        0.995877
   50        0.023040
   51       -0.013840
   52        0.001735
   53       -0.001556
   54       -0.000045
   55       -0.003502
   56        0.002898
   57        0.000084
Sym= A
Ene=  -11.3381
Spin= Alpha
Occup=  2.0000
    1        0.996157
    2        0.024303
    3       -0.012248
    4       -0.000637
    5        0.000694
    6        0.000017
    7       -0.002810
    8        0.001346
    9        0.000019
   10        0.003899
   11       -0.000417
   12        0.003283
   13        0.000204
   14        0.000140
   15       -0.000001
   16       -0.002721
   17       -0.002547
   18       -0.000010
   19       -0.000064
   20       -0.000263
   21        0.001745
   22        0.000107
   23        0.000042
   24        0.000001
   25       -0.000679
   26       -0.001245
   27       -0.000012
   28       -0.000052
   29       -0.000144
   30        0.000244
   31        0.000040
   32        0.000124
   33       -0.000008
   34        0.000064
   35       -0.000329
   36        0.000054
   37       -0.000060
   38        0.000092
   39       -0.000014
   40        0.000202
   41       -0.000050
   42        0.000005
   43       -0.000085
   44        0.002804
   45       -0.000254
   46       -0.000454
   47        0.000013
   48        0.000422
   49       -0.000348
   50        0.000312
   51       -0.000734
   52        0.000214
   53       -0.000226
   54       -0.000008
   55       -0.000661
   56        0.000942
   57        0.000033
Sym= A
Ene=  -11.2748
Spin= Alpha
Occup=  2.0000
    1       -0.000061
    2       -0.000172
    3       -0.000982
    4       -0.000155
    5       -0.000109
    6       -0.000002
    7       -0.000015
    8       -0.000166
    9        0.000007
   10        0.023381
   11       -0.000417
   12        0.006329
   13       -0.000038
   14       -0.000263
   15        0.000002
   16       -0.000122
   17        0.003251
   18       -0.000023
   19        0.995904
   20        0.024839
   21       -0.017796
   22       -0.000080
   23       -0.000154
   24       -0.000002
   25        0.002196
   26        0.000290
   27        0.000039
   28        0.006402
   29       -0.000286
   30        0.003991
   31       -0.000137
   32        0.000064
   33        0.000021
   34        0.001240
   35       -0.002237
   36       -0.000125
   37       -0.000199
   38        0.000415
   39       -0.000101
   40       -0.000046
   41       -0.000195
   42        0.000599
   43        0.000040
   44        0.000247
   45       -0.000034
   46        0.000579
   47       -0.000212
   48        0.002243
   50       -0.000030
   51        0.000227
   52       -0.000014
   53        0.000019
   55        0.000054
   56       -0.000160
   57       -0.000005
Sym= A
Ene=  -11.2404
Spin= Alpha
Occup=  2.0000
    1       -0.004135
    2       -0.000780
    3        0.006346
    4       -0.000227
    5       -0.000006
    6       -0.000001
    7        0.002228
    8        0.002329
    9        0.000032
   10        0.995861
   11        0.025422
   12       -0.019385
   13       -0.000203
   14        0.000321
   15       -0.000008
   16        0.002160
   17       -0.003576
   18        0.000023
   19       -0.023981
   20       -0.001656
   21        0.008625
   22        0.000142
   23        0.000170
   24        0.000001
   25       -0.003052
   26       -0.002127
   27       -0.000019
   28       -0.001117
   29       -0.000010
   30       -0.001679
   31       -0.000049
   32        0.000202
   33       -0.000006
   34       -0.000080
   35        0.000555
   36        0.000038
   37        0.000033
   38        0.000107
   39        0.000062
   40        0.000237
   41        0.000027
   42        0.000059
   43       -0.000035
   44        0.000530
   45       -0.000369
   46        0.001510
   47       -0.000037
   48        0.000475
   49        0.000018
   50        0.000131
   51       -0.001487
   52       -0.000044
   53        0.000018
   54       -0.000003
   55       -0.000543
   56        0.000131
   57        0.000018
Sym= A
Ene=  -11.2249
Spin= Alpha
Occup=  2.0000
    1       -0.000037
    2        0.000108
    3        0.000044
    4       -0.000010
    5        0.000130
    6        0.000007
    7       -0.000180
    8        0.000017
    9       -0.000005
   10       -0.000970
   11        0.000166
   12       -0.000441
   13       -0.000007
   14        0.000161
   15       -0.000001
   16       -0.000264
   17       -0.000671
   18        0.000001
   19        0.006598
   20        0.000632
   21       -0.004193
   22       -0.000059
   23        0.000169
   24       -0.000003
   25        0.001130
   26       -0.002725
   27        0.000007
   28       -0.996176
   29       -0.026131
   30        0.019128
   31       -0.000116
   32        0.000181
   33       -0.000031
   34        0.000435
   35       -0.001112
   36        0.000083
   37       -0.000093
   38       -0.003205
   39       -0.000035
   40       -0.003124
   41       -0.000086
   42       -0.003266
   43        0.000020
   44       -0.000126
   45       -0.000027
   46       -0.000388
   47        0.000132
   48       -0.000050
   49        0.000004
   50        0.000130
   51       -0.000322
   52        0.000067
   53        0.000049
   54        0.000009
   55       -0.000256
   56       -0.000010
   57       -0.000026
Sym= A
Ene=   -1.3999
Spin= Alpha
Occup=  2.0000
    1        0.113677
    2       -0.231139
    3       -0.039541
    4        0.123603
    5       -0.126054
    6       -0.003087
    7       -0.040583
    8        0.057779
    9        0.001331
   10        0.019733
   11       -0.037732
   12       -0.026676
   13        0.028072
   14       -0.002150
   15        0.000044
   16       -0.002977
   17       -0.033700
   18       -0.000444
   19        0.006909
   20       -0.013025
   21        0.021747
   22        0.006066
   23        0.005061
   24       -0.000033
   25       -0.003948
   26       -0.008663
   27        0.000238
   28        0.003071
   29       -0.004701
   30       -0.004960
   31        0.000762
   32        0.002861
   33        0.000046
   34        0.002371
   35        0.005430
   36       -0.000368
   37       -0.001904
   38       -0.001862
   39       -0.000966
   40       -0.001791
   41       -0.001343
   42       -0.001345
   43       -0.028620
   44        0.016522
   45       -0.006211
   46       -0.004284
   47       -0.001899
   48       -0.000622
   49        0.195357
   50       -0.427975
   51       -0.446372
   52       -0.115353
   53        0.105212
   54        0.002716
   55       -0.054192
   56        0.046163
   57        0.001323
Sym= A
Ene=   -1.1003
Spin= Alpha
Occup=  2.0000
    1        0.034082
    2       -0.073532
    3       -0.052435
    4       -0.105432
    5        0.008318
    6        0.000451
    7       -0.009516
    8       -0.011457
    9       -0.000124
   10        0.136167
   11       -0.268060
   12       -0.181243
   13       -0.015593
   14       -0.082571
   15        0.000297
   16       -0.002549
   17        0.005583
   18        0.000222
   19        0.148146
   20       -0.297904
   21       -0.198146
   22        0.050661
   23        0.052778
   24        0.000046
   25        0.000387
   26        0.001928
   27       -0.000092
   28        0.086822
   29       -0.164449
   30       -0.145067
   31       -0.023151
   32        0.052740
   33       -0.000513
   34       -0.001716
   35        0.004855
   36       -0.000261
   37       -0.044655
   38       -0.000238
   39       -0.042385
   40       -0.002075
   41       -0.044748
   42       -0.000193
   43       -0.017902
   44       -0.006090
   45       -0.066826
   46       -0.006157
   47       -0.076985
   48       -0.011000
   49       -0.036054
   50        0.079787
   51        0.101098
   52       -0.009682
   53       -0.018033
   54       -0.000298
   55        0.001038
   56       -0.007397
   57       -0.000016
Sym= A
Ene=   -0.9795
Spin= Alpha
Occup=  2.0000
    1       -0.071304
    2        0.155653
    3        0.111354
    4        0.117074
    5       -0.038775
    6       -0.000766
    7        0.020780
    8       -0.011218
    9       -0.000226
   10       -0.108527
   11        0.214559
   12        0.172732
   13       -0.041723
   14       -0.037714
   15       -0.000398
   16       -0.009852
   17       -0.011446
   18       -0.000069
   19        0.029376
   20       -0.061081
   21       -0.031708
   22        0.004612
   23       -0.161322
   24        0.000390
   25        0.001527
   26       -0.021059
   27        0.000032
   28        0.150055
   29       -0.284109
   30       -0.296228
   31       -0.012812
   32        0.004395
   33       -0.000763
   34       -0.006393
   35        0.003052
   36       -0.000646
   37       -0.095424
   38       -0.018039
   39       -0.102760
   40       -0.022610
   41       -0.096471
   42       -0.018305
   43        0.057501
   44        0.015202
   45        0.080826
   46        0.024708
   47       -0.024722
   48       -0.009642
   49        0.038646
   50       -0.087609
   51       -0.110150
   52        0.021628
   53       -0.013657
   54       -0.000014
   55        0.007423
   56       -0.006322
   57        0.000176
Sym= A
Ene=   -0.8690
Spin= Alpha
Occup=  2.0000
    1       -0.114559
    2        0.251746
    3        0.218009
    4        0.095608
    5       -0.112852
    6       -0.002557
    7        0.034038
    8       -0.052473
    9       -0.001172
   10        0.003670
   11       -0.004295
   12       -0.011032
   13       -0.185046
   14       -0.152785
   15       -0.000973
   16       -0.038447
   17       -0.017656
   18       -0.000228
   19        0.096466
   20       -0.195580
   21       -0.192449
   22       -0.061089
   23        0.122504
   24       -0.000977
   25       -0.023065
   26        0.012649
   27       -0.000126
   28       -0.084384
   29        0.159910
   30        0.198086
   31       -0.036102
   32        0.062648
   33        0.000205
   34        0.002492
   35        0.018221
   36       -0.000821
   37        0.074008
   38        0.021635
   39        0.074491
   40        0.019611
   41        0.074312
   42        0.023314
   43        0.135996
   44        0.044848
   45        0.003984
   46        0.007378
   47       -0.104509
   48       -0.037364
   49        0.059364
   50       -0.136429
   51       -0.175129
   52        0.047496
   53       -0.053483
   54       -0.001376
   55        0.023254
   56       -0.023352
   57       -0.000699
Sym= A
Ene=   -0.7470
Spin= Alpha
Occup=  2.0000
    1       -0.062218
    2        0.140991
    3        0.125456
    4       -0.189298
    5       -0.201075
    6       -0.004625
    7       -0.044876
    8       -0.120853
    9       -0.002593
   10        0.070524
   11       -0.145231
   12       -0.122817
   13        0.039632
   14        0.008198
   15       -0.000550
   16       -0.000124
   17        0.050443
   18       -0.000092
   19       -0.071468
   20        0.148195
   21        0.137903
   22        0.174305
   23        0.101572